 Entering Gaussian System, Link 0=/sw/chem/g16/g16
 Initial command:
 /sw/chem/g16/l1.exe "/scratch_local/sjiao/boricacid/Gau-1210.inp" -scrdir="/scratch_local/sjiao/boricacid/"
 Entering Link 1 = /sw/chem/g16/l1.exe PID=      1249.
  
 Copyright (c) 1988-2017, Gaussian, Inc.  All Rights Reserved.
  
 This is part of the Gaussian(R) 16 program.  It is based on
 the Gaussian(R) 09 system (copyright 2009, Gaussian, Inc.),
 the Gaussian(R) 03 system (copyright 2003, Gaussian, Inc.),
 the Gaussian(R) 98 system (copyright 1998, Gaussian, Inc.),
 the Gaussian(R) 94 system (copyright 1995, Gaussian, Inc.),
 the Gaussian 92(TM) system (copyright 1992, Gaussian, Inc.),
 the Gaussian 90(TM) system (copyright 1990, Gaussian, Inc.),
 the Gaussian 88(TM) system (copyright 1988, Gaussian, Inc.),
 the Gaussian 86(TM) system (copyright 1986, Carnegie Mellon
 University), and the Gaussian 82(TM) system (copyright 1983,
 Carnegie Mellon University). Gaussian is a federally registered
 trademark of Gaussian, Inc.
  
 This software contains proprietary and confidential information,
 including trade secrets, belonging to Gaussian, Inc.
  
 This software is provided under written license and may be
 used, copied, transmitted, or stored only in accord with that
 written license.
  
 The following legend is applicable only to US Government
 contracts under FAR:
  
                    RESTRICTED RIGHTS LEGEND
  
 Use, reproduction and disclosure by the US Government is
 subject to restrictions as set forth in subparagraphs (a)
 and (c) of the Commercial Computer Software - Restricted
 Rights clause in FAR 52.227-19.
  
 Gaussian, Inc.
 340 Quinnipiac St., Bldg. 40, Wallingford CT 06492
  
  
 ---------------------------------------------------------------
 Warning -- This program may not be used in any manner that
 competes with the business of Gaussian, Inc. or will provide
 assistance to any competitor of Gaussian, Inc.  The licensee
 of this program is prohibited from giving any competitor of
 Gaussian, Inc. access to this program.  By using this program,
 the user acknowledges that Gaussian, Inc. is engaged in the
 business of creating and licensing software in the field of
 computational chemistry and represents and warrants to the
 licensee that it is not a competitor of Gaussian, Inc. and that
 it will not use this program in any manner prohibited above.
 ---------------------------------------------------------------
  

 Cite this work as:
 Gaussian 16, Revision B.01,
 M. J. Frisch, G. W. Trucks, H. B. Schlegel, G. E. Scuseria, 
 M. A. Robb, J. R. Cheeseman, G. Scalmani, V. Barone, 
 G. A. Petersson, H. Nakatsuji, X. Li, M. Caricato, A. V. Marenich, 
 J. Bloino, B. G. Janesko, R. Gomperts, B. Mennucci, H. P. Hratchian, 
 J. V. Ortiz, A. F. Izmaylov, J. L. Sonnenberg, D. Williams-Young, 
 F. Ding, F. Lipparini, F. Egidi, J. Goings, B. Peng, A. Petrone, 
 T. Henderson, D. Ranasinghe, V. G. Zakrzewski, J. Gao, N. Rega, 
 G. Zheng, W. Liang, M. Hada, M. Ehara, K. Toyota, R. Fukuda, 
 J. Hasegawa, M. Ishida, T. Nakajima, Y. Honda, O. Kitao, H. Nakai, 
 T. Vreven, K. Throssell, J. A. Montgomery, Jr., J. E. Peralta, 
 F. Ogliaro, M. J. Bearpark, J. J. Heyd, E. N. Brothers, K. N. Kudin, 
 V. N. Staroverov, T. A. Keith, R. Kobayashi, J. Normand, 
 K. Raghavachari, A. P. Rendell, J. C. Burant, S. S. Iyengar, 
 J. Tomasi, M. Cossi, J. M. Millam, M. Klene, C. Adamo, R. Cammi, 
 J. W. Ochterski, R. L. Martin, K. Morokuma, O. Farkas, 
 J. B. Foresman, and D. J. Fox, Gaussian, Inc., Wallingford CT, 2016.
 
 ******************************************
 Gaussian 16:  ES64L-G16RevB.01 20-Dec-2017
                12-Mar-2019 
 ******************************************
 %NProcShared=4
 Will use up to    4 processors via shared memory.
 %Chk=boricacid.chk
 ----------------------------------------------------------------------
 #p B3LYP/6-311++G(d,p) Opt freq temp=0 punch=derivatives SCF=Tight Pop
 =MK IOp(6/50=1) iop(6/42=8) iop(6/41=7)
 ----------------------------------------------------------------------
 1/18=20,19=15,26=3,38=1/1,3;
 2/9=110,12=2,17=6,18=5,40=1/2;
 3/5=4,6=6,7=1111,11=2,25=1,30=1,71=1,74=-5/1,2,3;
 4//1;
 5/5=2,32=2,38=5/2;
 6/7=2,8=2,9=2,10=2,15=8,20=1,28=1,41=7,42=8,50=1/1,2;
 7//1,2,3,16;
 1/18=20,19=15,26=3/3(2);
 2/9=110/2;
 99/10=4/99;
 2/9=110/2;
 3/5=4,6=6,7=1111,11=2,25=1,30=1,71=1,74=-5/1,2,3;
 4/5=5,16=3,69=1/1;
 5/5=2,32=2,38=5/2;
 7//1,2,3,16;
 1/18=20,19=15,26=3/3(-5);
 2/9=110/2;
 6/7=2,8=2,9=2,10=2,15=8,19=2,20=1,28=1,41=7,42=8,50=1/1,2;
 99/9=1,10=4/99;
 Leave Link    1 at Tue Mar 12 17:00:56 2019, MaxMem=           0 cpu:               0.2 elap:               0.1
 (Enter /sw/chem/g16/l101.exe)
 ---------
 boricacid
 ---------
 Symbolic Z-matrix:
 Charge =  0 Multiplicity = 1
 B                    -0.75149   0.81022  -0.10775 
 O                    -0.31512   2.15824  -0.46132 
 O                    -2.02251   0.61173   0.58393 
 O                     0.07174  -0.34103  -0.46763 
 H                     0.24842   2.44646   0.30055 
 H                    -2.68926   0.51039  -0.14151 
 H                     0.69591  -0.4498    0.29373 
 
 ITRead=  0  0  0  0  0  0  0
 MicOpt= -1 -1 -1 -1 -1 -1 -1
 NAtoms=      7 NQM=        7 NQMF=       0 NMMI=      0 NMMIF=      0
                NMic=       0 NMicF=      0.
                    Isotopes and Nuclear Properties:
 (Nuclear quadrupole moments (NQMom) in fm**2, nuclear magnetic moments (NMagM)
  in nuclear magnetons)

  Atom         1           2           3           4           5           6           7
 IAtWgt=          11          16          16          16           1           1           1
 AtmWgt=  11.0093053  15.9949146  15.9949146  15.9949146   1.0078250   1.0078250   1.0078250
 NucSpn=           3           0           0           0           1           1           1
 AtZEff=  -0.0000000  -0.0000000  -0.0000000  -0.0000000  -0.0000000  -0.0000000  -0.0000000
 NQMom=    4.0590000   0.0000000   0.0000000   0.0000000   0.0000000   0.0000000   0.0000000
 NMagM=    2.6886370   0.0000000   0.0000000   0.0000000   2.7928460   2.7928460   2.7928460
 AtZNuc=   5.0000000   8.0000000   8.0000000   8.0000000   1.0000000   1.0000000   1.0000000
 Leave Link  101 at Tue Mar 12 17:00:56 2019, MaxMem=   104857600 cpu:               0.4 elap:               0.1
 (Enter /sw/chem/g16/l103.exe)

 GradGradGradGradGradGradGradGradGradGradGradGradGradGradGradGradGradGrad
 Berny optimization.
 Initialization pass.
                           ----------------------------
                           !    Initial Parameters    !
                           ! (Angstroms and Degrees)  !
 --------------------------                            --------------------------
 ! Name  Definition              Value          Derivative Info.                !
 --------------------------------------------------------------------------------
 ! R1    R(1,2)                  1.4603         estimate D2E/DX2                !
 ! R2    R(1,3)                  1.4606         estimate D2E/DX2                !
 ! R3    R(1,4)                  1.4603         estimate D2E/DX2                !
 ! R4    R(2,5)                  0.9905         estimate D2E/DX2                !
 ! R5    R(3,6)                  0.9905         estimate D2E/DX2                !
 ! R6    R(4,7)                  0.9905         estimate D2E/DX2                !
 ! A1    A(2,1,3)              120.0089         estimate D2E/DX2                !
 ! A2    A(2,1,4)              119.9732         estimate D2E/DX2                !
 ! A3    A(3,1,4)              120.0085         estimate D2E/DX2                !
 ! A4    A(1,2,5)              104.6186         estimate D2E/DX2                !
 ! A5    A(1,3,6)              104.646          estimate D2E/DX2                !
 ! A6    A(1,4,7)              104.6184         estimate D2E/DX2                !
 ! D1    D(3,1,2,5)             93.0215         estimate D2E/DX2                !
 ! D2    D(4,1,2,5)            -88.0946         estimate D2E/DX2                !
 ! D3    D(2,1,3,6)             89.4397         estimate D2E/DX2                !
 ! D4    D(4,1,3,6)            -89.4438         estimate D2E/DX2                !
 ! D5    D(2,1,4,7)             88.1599         estimate D2E/DX2                !
 ! D6    D(3,1,4,7)            -92.9562         estimate D2E/DX2                !
 --------------------------------------------------------------------------------
 Trust Radius=3.00D-01 FncErr=1.00D-07 GrdErr=1.00D-06 EigMax=2.50D+02 EigMin=1.00D-04
 Number of steps in this run=     28 maximum allowed number of steps=    100.
 GradGradGradGradGradGradGradGradGradGradGradGradGradGradGradGradGradGrad

 Leave Link  103 at Tue Mar 12 17:00:56 2019, MaxMem=   104857600 cpu:               0.0 elap:               0.0
 (Enter /sw/chem/g16/l202.exe)
                          Input orientation:                          
 ---------------------------------------------------------------------
 Center     Atomic      Atomic             Coordinates (Angstroms)
 Number     Number       Type             X           Y           Z
 ---------------------------------------------------------------------
      1          5           0       -0.751490    0.810220   -0.107750
      2          8           0       -0.315120    2.158240   -0.461320
      3          8           0       -2.022510    0.611730    0.583930
      4          8           0        0.071740   -0.341030   -0.467630
      5          1           0        0.248420    2.446460    0.300550
      6          1           0       -2.689260    0.510390   -0.141510
      7          1           0        0.695910   -0.449800    0.293730
 ---------------------------------------------------------------------
                    Distance matrix (angstroms):
                    1          2          3          4          5
     1  B    0.000000
     2  O    1.460338   0.000000
     3  O    1.460586   2.529708   0.000000
     4  O    1.460342   2.529042   2.529706   0.000000
     5  H    1.960564   0.990502   2.933200   2.896794   0.000000
     6  H    1.961120   2.907616   0.990499   2.907644   3.545948
     7  H    1.960562   2.897267   2.932724   0.990499   2.930634
                    6          7
     6  H    0.000000
     7  H    3.545529   0.000000
 Stoichiometry    BH3O3
 Framework group  C1[X(BH3O3)]
 Deg. of freedom    15
 Full point group                 C1      NOp   1
 Largest Abelian subgroup         C1      NOp   1
 Largest concise Abelian subgroup C1      NOp   1
                         Standard orientation:                         
 ---------------------------------------------------------------------
 Center     Atomic      Atomic             Coordinates (Angstroms)
 Number     Number       Type             X           Y           Z
 ---------------------------------------------------------------------
      1          5           0        0.005311   -0.000025   -0.022364
      2          8           0       -0.720485   -1.263638   -0.117714
      3          8           0        1.456402   -0.001836    0.143902
      4          8           0       -0.717315    1.265402   -0.117778
      5          1           0       -0.997147   -1.463792    0.812065
      6          1           0        1.814308   -0.002342   -0.779673
      7          1           0       -0.992539    1.466838    0.812148
 ---------------------------------------------------------------------
 Rotational constants (GHZ):           8.7103537           8.6415597           4.5357202
 Leave Link  202 at Tue Mar 12 17:00:56 2019, MaxMem=   104857600 cpu:               0.0 elap:               0.0
 (Enter /sw/chem/g16/l301.exe)
 Standard basis: 6-311++G(d,p) (5D, 7F)
 Ernie: Thresh=  0.10000D-02 Tol=  0.10000D-05 Strict=F.
 There are   113 symmetry adapted cartesian basis functions of A   symmetry.
 There are   109 symmetry adapted basis functions of A   symmetry.
   109 basis functions,   171 primitive gaussians,   113 cartesian basis functions
    16 alpha electrons       16 beta electrons
       nuclear repulsion energy       109.7192378336 Hartrees.
 IExCor=  402 DFT=T Ex+Corr=B3LYP ExCW=0 ScaHFX=  0.200000
 ScaDFX=  0.800000  0.720000  1.000000  0.810000 ScalE2=  1.000000  1.000000
 IRadAn=      5 IRanWt=     -1 IRanGd=            0 ICorTp=0 IEmpDi=  4
 NAtoms=    7 NActive=    7 NUniq=    7 SFac= 1.00D+00 NAtFMM=   60 NAOKFM=F Big=F
 Integral buffers will be    131072 words long.
 Raffenetti 2 integral format.
 Two-electron integral symmetry is turned on.
 Leave Link  301 at Tue Mar 12 17:00:56 2019, MaxMem=   104857600 cpu:               0.2 elap:               0.1
 (Enter /sw/chem/g16/l302.exe)
 NPDir=0 NMtPBC=     1 NCelOv=     1 NCel=       1 NClECP=     1 NCelD=      1
         NCelK=      1 NCelE2=     1 NClLst=     1 CellRange=     0.0.
 One-electron integrals computed using PRISM.
 One-electron integral symmetry used in STVInt
 NBasis=   109 RedAO= T EigKep=  7.74D-04  NBF=   109
 NBsUse=   109 1.00D-06 EigRej= -1.00D+00 NBFU=   109
 Precomputing XC quadrature grid using
 IXCGrd= 4 IRadAn=           5 IRanWt=          -1 IRanGd=           0 AccXCQ= 0.00D+00.
 Generated NRdTot=       0 NPtTot=           0 NUsed=           0 NTot=          32
 NSgBfM=   113   113   113   113   113 MxSgAt=     7 MxSgA2=     7.
 Leave Link  302 at Tue Mar 12 17:00:56 2019, MaxMem=   104857600 cpu:               0.6 elap:               0.2
 (Enter /sw/chem/g16/l303.exe)
 DipDrv:  MaxL=1.
 Leave Link  303 at Tue Mar 12 17:00:56 2019, MaxMem=   104857600 cpu:               0.1 elap:               0.0
 (Enter /sw/chem/g16/l401.exe)
 ExpMin= 3.15D-02 ExpMax= 8.59D+03 ExpMxC= 1.30D+03 IAcc=3 IRadAn=         5 AccDes= 0.00D+00
 Harris functional with IExCor=  402 and IRadAn=       5 diagonalized for initial guess.
 HarFok:  IExCor=  402 AccDes= 0.00D+00 IRadAn=         5 IDoV= 1 UseB2=F ITyADJ=14
 ICtDFT=  3500011 ScaDFX=  1.000000  1.000000  1.000000  1.000000
 FoFCou: FMM=F IPFlag=           0 FMFlag=      100000 FMFlg1=           0
         NFxFlg=           0 DoJE=T BraDBF=F KetDBF=T FulRan=T
         wScrn=  0.000000 ICntrl=       500 IOpCl=  0 I1Cent=   200000004 NGrid=           0
         NMat0=    1 NMatS0=      1 NMatT0=    0 NMatD0=    1 NMtDS0=    0 NMtDT0=    0
 Petite list used in FoFCou.
 Harris En= -252.592996077590    
 JPrj=0 DoOrth=F DoCkMO=F.
 Leave Link  401 at Tue Mar 12 17:00:57 2019, MaxMem=   104857600 cpu:               2.7 elap:               0.7
 (Enter /sw/chem/g16/l502.exe)
 Keep R1 ints in memory in canonical form, NReq=21729851.
 FoFCou: FMM=F IPFlag=           0 FMFlag=           0 FMFlg1=           0
         NFxFlg=           0 DoJE=F BraDBF=F KetDBF=F FulRan=T
         wScrn=  0.000000 ICntrl=       600 IOpCl=  0 I1Cent=           0 NGrid=           0
         NMat0=    1 NMatS0=   5995 NMatT0=    0 NMatD0=    1 NMtDS0=    0 NMtDT0=    0
 Symmetry not used in FoFCou.
 Two-electron integral symmetry not used.
 Closed shell SCF:
 Using DIIS extrapolation, IDIIS=  1040.
 NGot=   104857600 LenX=    86857179 LenY=    86843969
 Requested convergence on RMS density matrix=1.00D-08 within 128 cycles.
 Requested convergence on MAX density matrix=1.00D-06.
 Requested convergence on             energy=1.00D-06.
 No special actions if energy rises.

 Cycle   1  Pass 1  IDiag  1:
 E= -252.301716036260    
 DIIS: error= 5.43D-02 at cycle   1 NSaved=   1.
 NSaved= 1 IEnMin= 1 EnMin= -252.301716036260     IErMin= 1 ErrMin= 5.43D-02
 ErrMax= 5.43D-02  0.00D+00 EMaxC= 1.00D-01 BMatC= 3.32D-01 BMatP= 3.32D-01
 IDIUse=3 WtCom= 4.57D-01 WtEn= 5.43D-01
 Coeff-Com:  0.100D+01
 Coeff-En:   0.100D+01
 Coeff:      0.100D+01
 Gap=     0.121 Goal=   None    Shift=    0.000
 GapD=    0.121 DampG=1.000 DampE=0.500 DampFc=0.5000 IDamp=-1.
 Damping current iteration by 5.00D-01
 RMSDP=9.52D-03 MaxDP=1.43D-01              OVMax= 2.50D-01

 Cycle   2  Pass 1  IDiag  1:
 E= -252.344946076097     Delta-E=       -0.043230039838 Rises=F Damp=T
 DIIS: error= 1.98D-02 at cycle   2 NSaved=   2.
 NSaved= 2 IEnMin= 2 EnMin= -252.344946076097     IErMin= 2 ErrMin= 1.98D-02
 ErrMax= 1.98D-02  0.00D+00 EMaxC= 1.00D-01 BMatC= 3.57D-02 BMatP= 3.32D-01
 IDIUse=3 WtCom= 8.02D-01 WtEn= 1.98D-01
 Coeff-Com:  0.236D+00 0.764D+00
 Coeff-En:   0.409D+00 0.591D+00
 Coeff:      0.270D+00 0.730D+00
 Gap=     0.250 Goal=   None    Shift=    0.000
 RMSDP=1.83D-03 MaxDP=4.48D-02 DE=-4.32D-02 OVMax= 1.62D-01

 Cycle   3  Pass 1  IDiag  1:
 E= -252.517610394770     Delta-E=       -0.172664318673 Rises=F Damp=F
 DIIS: error= 1.58D-03 at cycle   3 NSaved=   3.
 NSaved= 3 IEnMin= 3 EnMin= -252.517610394770     IErMin= 3 ErrMin= 1.58D-03
 ErrMax= 1.58D-03  0.00D+00 EMaxC= 1.00D-01 BMatC= 3.43D-04 BMatP= 3.57D-02
 IDIUse=3 WtCom= 9.84D-01 WtEn= 1.58D-02
 Coeff-Com:  0.337D-01 0.514D-01 0.915D+00
 Coeff-En:   0.000D+00 0.000D+00 0.100D+01
 Coeff:      0.332D-01 0.506D-01 0.916D+00
 Gap=     0.258 Goal=   None    Shift=    0.000
 RMSDP=2.03D-04 MaxDP=6.28D-03 DE=-1.73D-01 OVMax= 5.69D-03

 Cycle   4  Pass 1  IDiag  1:
 E= -252.517753343813     Delta-E=       -0.000142949043 Rises=F Damp=F
 DIIS: error= 1.00D-03 at cycle   4 NSaved=   4.
 NSaved= 4 IEnMin= 4 EnMin= -252.517753343813     IErMin= 4 ErrMin= 1.00D-03
 ErrMax= 1.00D-03  0.00D+00 EMaxC= 1.00D-01 BMatC= 1.02D-04 BMatP= 3.43D-04
 IDIUse=3 WtCom= 9.90D-01 WtEn= 1.00D-02
 Coeff-Com:  0.716D-02-0.656D-02 0.396D+00 0.603D+00
 Coeff-En:   0.000D+00 0.000D+00 0.203D+00 0.797D+00
 Coeff:      0.709D-02-0.650D-02 0.395D+00 0.605D+00
 Gap=     0.257 Goal=   None    Shift=    0.000
 RMSDP=9.80D-05 MaxDP=2.64D-03 DE=-1.43D-04 OVMax= 2.77D-03

 Cycle   5  Pass 1  IDiag  1:
 E= -252.517833748958     Delta-E=       -0.000080405144 Rises=F Damp=F
 DIIS: error= 3.38D-04 at cycle   5 NSaved=   5.
 NSaved= 5 IEnMin= 5 EnMin= -252.517833748958     IErMin= 5 ErrMin= 3.38D-04
 ErrMax= 3.38D-04  0.00D+00 EMaxC= 1.00D-01 BMatC= 1.49D-05 BMatP= 1.02D-04
 IDIUse=3 WtCom= 9.97D-01 WtEn= 3.38D-03
 Coeff-Com:  0.311D-02-0.676D-02 0.166D+00 0.338D+00 0.499D+00
 Coeff-En:   0.000D+00 0.000D+00 0.000D+00 0.000D+00 0.100D+01
 Coeff:      0.310D-02-0.674D-02 0.166D+00 0.337D+00 0.501D+00
 Gap=     0.257 Goal=   None    Shift=    0.000
 RMSDP=2.62D-05 MaxDP=5.87D-04 DE=-8.04D-05 OVMax= 9.86D-04

 Cycle   6  Pass 1  IDiag  1:
 E= -252.517842741063     Delta-E=       -0.000008992105 Rises=F Damp=F
 DIIS: error= 9.87D-05 at cycle   6 NSaved=   6.
 NSaved= 6 IEnMin= 6 EnMin= -252.517842741063     IErMin= 6 ErrMin= 9.87D-05
 ErrMax= 9.87D-05  0.00D+00 EMaxC= 1.00D-01 BMatC= 1.67D-06 BMatP= 1.49D-05
 IDIUse=1 WtCom= 1.00D+00 WtEn= 0.00D+00
 Coeff-Com:  0.922D-03-0.281D-02 0.162D-01 0.778D-01 0.272D+00 0.636D+00
 Coeff:      0.922D-03-0.281D-02 0.162D-01 0.778D-01 0.272D+00 0.636D+00
 Gap=     0.257 Goal=   None    Shift=    0.000
 RMSDP=8.61D-06 MaxDP=1.51D-04 DE=-8.99D-06 OVMax= 2.52D-04

 Cycle   7  Pass 1  IDiag  1:
 E= -252.517843998283     Delta-E=       -0.000001257221 Rises=F Damp=F
 DIIS: error= 1.03D-05 at cycle   7 NSaved=   7.
 NSaved= 7 IEnMin= 7 EnMin= -252.517843998283     IErMin= 7 ErrMin= 1.03D-05
 ErrMax= 1.03D-05  0.00D+00 EMaxC= 1.00D-01 BMatC= 9.38D-09 BMatP= 1.67D-06
 IDIUse=1 WtCom= 1.00D+00 WtEn= 0.00D+00
 Coeff-Com:  0.204D-03-0.566D-03 0.200D-02 0.133D-01 0.460D-01 0.134D+00
 Coeff-Com:  0.805D+00
 Coeff:      0.204D-03-0.566D-03 0.200D-02 0.133D-01 0.460D-01 0.134D+00
 Coeff:      0.805D+00
 Gap=     0.257 Goal=   None    Shift=    0.000
 RMSDP=1.09D-06 MaxDP=1.91D-05 DE=-1.26D-06 OVMax= 2.54D-05

 Cycle   8  Pass 1  IDiag  1:
 E= -252.517844005421     Delta-E=       -0.000000007137 Rises=F Damp=F
 DIIS: error= 1.55D-06 at cycle   8 NSaved=   8.
 NSaved= 8 IEnMin= 8 EnMin= -252.517844005421     IErMin= 8 ErrMin= 1.55D-06
 ErrMax= 1.55D-06  0.00D+00 EMaxC= 1.00D-01 BMatC= 1.95D-10 BMatP= 9.38D-09
 IDIUse=1 WtCom= 1.00D+00 WtEn= 0.00D+00
 Coeff-Com: -0.135D-04-0.214D-05 0.435D-04-0.219D-03-0.324D-02-0.759D-02
 Coeff-Com:  0.103D+00 0.908D+00
 Coeff:     -0.135D-04-0.214D-05 0.435D-04-0.219D-03-0.324D-02-0.759D-02
 Coeff:      0.103D+00 0.908D+00
 Gap=     0.257 Goal=   None    Shift=    0.000
 RMSDP=1.55D-07 MaxDP=2.35D-06 DE=-7.14D-09 OVMax= 4.38D-06

 Cycle   9  Pass 1  IDiag  1:
 E= -252.517844005582     Delta-E=       -0.000000000162 Rises=F Damp=F
 DIIS: error= 2.17D-07 at cycle   9 NSaved=   9.
 NSaved= 9 IEnMin= 9 EnMin= -252.517844005582     IErMin= 9 ErrMin= 2.17D-07
 ErrMax= 2.17D-07  0.00D+00 EMaxC= 1.00D-01 BMatC= 6.97D-12 BMatP= 1.95D-10
 IDIUse=1 WtCom= 1.00D+00 WtEn= 0.00D+00
 Coeff-Com: -0.858D-05 0.880D-05-0.549D-04-0.298D-03-0.161D-02-0.420D-02
 Coeff-Com:  0.160D-01 0.235D+00 0.756D+00
 Coeff:     -0.858D-05 0.880D-05-0.549D-04-0.298D-03-0.161D-02-0.420D-02
 Coeff:      0.160D-01 0.235D+00 0.756D+00
 Gap=     0.257 Goal=   None    Shift=    0.000
 RMSDP=2.91D-08 MaxDP=3.60D-07 DE=-1.62D-10 OVMax= 7.88D-07

 Cycle  10  Pass 1  IDiag  1:
 E= -252.517844005595     Delta-E=       -0.000000000012 Rises=F Damp=F
 DIIS: error= 4.59D-08 at cycle  10 NSaved=  10.
 NSaved=10 IEnMin=10 EnMin= -252.517844005595     IErMin=10 ErrMin= 4.59D-08
 ErrMax= 4.59D-08  0.00D+00 EMaxC= 1.00D-01 BMatC= 2.78D-13 BMatP= 6.97D-12
 IDIUse=1 WtCom= 1.00D+00 WtEn= 0.00D+00
 Coeff-Com: -0.650D-06 0.183D-05-0.147D-04-0.211D-04-0.505D-05-0.122D-03
 Coeff-Com: -0.318D-02-0.202D-01 0.925D-01 0.931D+00
 Coeff:     -0.650D-06 0.183D-05-0.147D-04-0.211D-04-0.505D-05-0.122D-03
 Coeff:     -0.318D-02-0.202D-01 0.925D-01 0.931D+00
 Gap=     0.257 Goal=   None    Shift=    0.000
 RMSDP=6.39D-09 MaxDP=7.69D-08 DE=-1.22D-11 OVMax= 3.13D-07

 SCF Done:  E(RB3LYP) =  -252.517844006     A.U. after   10 cycles
            NFock= 10  Conv=0.64D-08     -V/T= 2.0050
 KE= 2.512500979571D+02 PE=-8.153232924765D+02 EE= 2.018361126803D+02
 Leave Link  502 at Tue Mar 12 17:01:04 2019, MaxMem=   104857600 cpu:              26.2 elap:               6.8
 (Enter /sw/chem/g16/l601.exe)
 Copying SCF densities to generalized density rwf, IOpCl= 0 IROHF=0.

 **********************************************************************

            Population analysis using the SCF Density.

 **********************************************************************

 Orbital symmetries:
       Occupied  (A) (A) (A) (A) (A) (A) (A) (A) (A) (A) (A) (A)
                 (A) (A) (A) (A)
       Virtual   (A) (A) (A) (A) (A) (A) (A) (A) (A) (A) (A) (A)
                 (A) (A) (A) (A) (A) (A) (A) (A) (A) (A) (A) (A)
                 (A) (A) (A) (A) (A) (A) (A) (A) (A) (A) (A) (A)
                 (A) (A) (A) (A) (A) (A) (A) (A) (A) (A) (A) (A)
                 (A) (A) (A) (A) (A) (A) (A) (A) (A) (A) (A) (A)
                 (A) (A) (A) (A) (A) (A) (A) (A) (A) (A) (A) (A)
                 (A) (A) (A) (A) (A) (A) (A) (A) (A) (A) (A) (A)
                 (A) (A) (A) (A) (A) (A) (A) (A) (A)
 The electronic state is 1-A.
 Alpha  occ. eigenvalues --  -19.14513 -19.14512 -19.14379  -6.87314  -1.04140
 Alpha  occ. eigenvalues --   -1.00688  -1.00649  -0.56580  -0.53199  -0.51665
 Alpha  occ. eigenvalues --   -0.43488  -0.41285  -0.40316  -0.34157  -0.33830
 Alpha  occ. eigenvalues --   -0.30147
 Alpha virt. eigenvalues --   -0.04406  -0.02211  -0.00112   0.01002   0.04328
 Alpha virt. eigenvalues --    0.06179   0.06192   0.07190   0.11004   0.13444
 Alpha virt. eigenvalues --    0.13920   0.16248   0.16688   0.20790   0.21482
 Alpha virt. eigenvalues --    0.22549   0.23343   0.23737   0.24184   0.24433
 Alpha virt. eigenvalues --    0.25616   0.29236   0.31557   0.32014   0.38241
 Alpha virt. eigenvalues --    0.38387   0.39189   0.48117   0.49938   0.51795
 Alpha virt. eigenvalues --    0.56142   0.57469   0.57765   0.82888   0.83377
 Alpha virt. eigenvalues --    0.99713   1.00405   1.00694   1.03763   1.05603
 Alpha virt. eigenvalues --    1.05871   1.10114   1.13108   1.13416   1.21375
 Alpha virt. eigenvalues --    1.25234   1.27154   1.37861   1.38631   1.39330
 Alpha virt. eigenvalues --    1.45093   1.50219   1.53184   1.55910   1.60323
 Alpha virt. eigenvalues --    1.61143   1.86570   1.98529   1.99281   2.00417
 Alpha virt. eigenvalues --    2.17640   2.18672   2.52459   2.58383   2.61654
 Alpha virt. eigenvalues --    2.77931   3.05671   3.05985   3.07257   3.15693
 Alpha virt. eigenvalues --    3.19494   3.21499   3.24319   3.24558   3.27935
 Alpha virt. eigenvalues --    3.62419   3.62525   3.75868   3.79157   3.80935
 Alpha virt. eigenvalues --    4.97640   5.00814   5.01568   5.01881   5.26757
 Alpha virt. eigenvalues --    5.27041   5.37756   5.53297   5.54386  14.49075
 Alpha virt. eigenvalues --   49.83828  49.83917  49.84026
          Condensed to atoms (all electrons):
               1          2          3          4          5          6
     1  B    3.689936   0.317739   0.363411   0.317930   0.004651  -0.002458
     2  O    0.317739   7.864741  -0.070024  -0.036891   0.273775  -0.000002
     3  O    0.363411  -0.070024   7.851352  -0.069958   0.000371   0.284161
     4  O    0.317930  -0.036891  -0.069958   7.864470  -0.005881   0.000008
     5  H    0.004651   0.273775   0.000371  -0.005881   0.480578   0.000984
     6  H   -0.002458  -0.000002   0.284161   0.000008   0.000984   0.466601
     7  H    0.004596  -0.005893   0.000357   0.273865  -0.000830   0.000984
               7
     1  B    0.004596
     2  O   -0.005893
     3  O    0.000357
     4  O    0.273865
     5  H   -0.000830
     6  H    0.000984
     7  H    0.480530
 Mulliken charges:
               1
     1  B    0.304194
     2  O   -0.343445
     3  O   -0.359670
     4  O   -0.343544
     5  H    0.246352
     6  H    0.249722
     7  H    0.246390
 Sum of Mulliken charges =  -0.00000
 Mulliken charges with hydrogens summed into heavy atoms:
               1
     1  B    0.304194
     2  O   -0.097092
     3  O   -0.109948
     4  O   -0.097154
 Electronic spatial extent (au):  <R**2>=            275.7672
 Charge=             -0.0000 electrons
 Dipole moment (field-independent basis, Debye):
    X=             -0.3053    Y=              0.0013    Z=              1.4862  Tot=              1.5173
 Quadrupole moment (field-independent basis, Debye-Ang):
   XX=            -24.4369   YY=            -26.5564   ZZ=            -18.7397
   XY=             -0.0012   XZ=             -7.4339   YZ=              0.0112
 Traceless Quadrupole moment (field-independent basis, Debye-Ang):
   XX=             -1.1926   YY=             -3.3121   ZZ=              4.5046
   XY=             -0.0012   XZ=             -7.4339   YZ=              0.0112
 Octapole moment (field-independent basis, Debye-Ang**2):
  XXX=              1.4492  YYY=              0.0175  ZZZ=              1.5424  XYY=             -2.3002
  XXY=             -0.0129  XXZ=             -2.3612  XZZ=             -0.4245  YZZ=              0.0017
  YYZ=              8.6340  XYZ=              0.0154
 Hexadecapole moment (field-independent basis, Debye-Ang**3):
 XXXX=           -145.1035 YYYY=           -152.8195 ZZZZ=            -23.4194 XXXY=              0.0070
 XXXZ=            -19.5764 YYYX=             -0.0129 YYYZ=              0.0461 ZZZX=             -7.5313
 ZZZY=              0.0117 XXYY=            -48.2441 XXZZ=            -23.1797 YYZZ=            -23.8991
 XXYZ=             -0.0031 YYXZ=             -9.7800 ZZXY=             -0.0009
 N-N= 1.097192378336D+02 E-N=-8.153232899921D+02  KE= 2.512500979571D+02
 No NMR shielding tensors so no spin-rotation constants.
 Leave Link  601 at Tue Mar 12 17:01:04 2019, MaxMem=   104857600 cpu:               0.5 elap:               0.1
 (Enter /sw/chem/g16/l602.exe)
 FitSet:  NAtFit=     7 NAtPot=     7 NAtFrz=     0 MDM=    11 TotChg=   0.00000
 Merz-Kollman atomic radii used.

 **********************************************************************

            Electrostatic Properties Using The SCF Density.

 **********************************************************************

       Atomic Center    1 is at   0.005311 -0.000025 -0.022364
       Atomic Center    2 is at  -0.720485 -1.263638 -0.117714
       Atomic Center    3 is at   1.456402 -0.001836  0.143902
       Atomic Center    4 is at  -0.717315  1.265402 -0.117778
       Atomic Center    5 is at  -0.997147 -1.463792  0.812065
       Atomic Center    6 is at   1.814308 -0.002342 -0.779673
       Atomic Center    7 is at  -0.992539  1.466838  0.812148
    8962 points will be used for fitting atomic charges
 Fitting point charges to electrostatic potential
 Charges from ESP fit, RMS=   0.00289 RRMS=   0.14810:
 ESP charges:
               1
     1  B    1.145585
     2  O   -0.761834
     3  O   -0.836990
     4  O   -0.762035
     5  H    0.382167
     6  H    0.450771
     7  H    0.382335
 Sum of ESP charges =  -0.00000
 ESP charges with hydrogens summed into heavy atoms:
               1
     1  B    1.145585
     2  O   -0.379666
     3  O   -0.386219
     4  O   -0.379700
 Charge=  -0.00000 Dipole=    -0.2888     0.0013     1.4543 Tot=     1.4827
 Writing Antechamber ESP formatted file "antechamber-ini.esp"
 -----------------------------------------------------------------

              Electrostatic Properties (Atomic Units)

 -----------------------------------------------------------------
    Center     Electric         -------- Electric Field --------
               Potential          X             Y             Z
 -----------------------------------------------------------------
    1 Atom    -11.321105
    2 Atom    -22.349676
    3 Atom    -22.350811
    4 Atom    -22.349675
    5 Atom     -0.958653
    6 Atom     -0.960678
    7 Atom     -0.958650
 -----------------------------------------------------------------
 Leave Link  602 at Tue Mar 12 17:01:04 2019, MaxMem=   104857600 cpu:               0.8 elap:               0.2
 (Enter /sw/chem/g16/l701.exe)
 ... and contract with generalized density number  0.
 Compute integral first derivatives.
 Leave Link  701 at Tue Mar 12 17:01:04 2019, MaxMem=   104857600 cpu:               0.5 elap:               0.1
 (Enter /sw/chem/g16/l702.exe)
 L702 exits ... SP integral derivatives will be done elsewhere.
 Leave Link  702 at Tue Mar 12 17:01:05 2019, MaxMem=   104857600 cpu:               0.1 elap:               0.0
 (Enter /sw/chem/g16/l703.exe)
 Integral derivatives from FoFJK, PRISM(SPDF).
 Compute integral first derivatives, UseDBF=F ICtDFT=           0.
 Calling FoFJK, ICntrl=      2127 FMM=F ISym2X=0 I1Cent= 0 IOpClX= 0 NMat=1 NMatS=1 NMatT=0.
 FoFJK:  IHMeth= 1 ICntrl=    2127 DoSepK=F KAlg= 0 I1Cent=           0 FoldK=F
 IRaf=         0 NMat=       1 IRICut=       1 DoRegI=T DoRafI=F ISym2E= 0 IDoP0=0 IntGTp=1.
 FoFCou: FMM=F IPFlag=           0 FMFlag=      100000 FMFlg1=         800
         NFxFlg=           0 DoJE=F BraDBF=F KetDBF=F FulRan=T
         wScrn=  0.000000 ICntrl=      2127 IOpCl=  0 I1Cent=           0 NGrid=           0
         NMat0=    1 NMatS0=      1 NMatT0=    0 NMatD0=    1 NMtDS0=    0 NMtDT0=    0
 Symmetry not used in FoFCou.
 Leave Link  703 at Tue Mar 12 17:01:06 2019, MaxMem=   104857600 cpu:               7.5 elap:               1.9
 (Enter /sw/chem/g16/l716.exe)
 Dipole        =-1.20100742D-01 4.96886822D-04 5.84732016D-01
 ***** Axes restored to original set *****
 -------------------------------------------------------------------
 Center     Atomic                   Forces (Hartrees/Bohr)
 Number     Number              X              Y              Z
 -------------------------------------------------------------------
      1        5          -0.002720332   -0.000405229   -0.003708106
      2        8          -0.000531622   -0.042182649    0.037784725
      3        8           0.029370203    0.004677144   -0.050610581
      4        8          -0.013223813    0.039857959    0.037996636
      5        1          -0.011106267    0.001251678   -0.021716658
      6        1           0.008434325    0.001248135    0.021981191
      7        1          -0.010222494   -0.004447037   -0.021727208
 -------------------------------------------------------------------
 Cartesian Forces:  Max     0.050610581 RMS     0.023533754
 Leave Link  716 at Tue Mar 12 17:01:07 2019, MaxMem=   104857600 cpu:               0.1 elap:               0.0
 (Enter /sw/chem/g16/l103.exe)

 GradGradGradGradGradGradGradGradGradGradGradGradGradGradGradGradGradGrad
 Berny optimization.
 FormGI is forming the generalized inverse of G from B-inverse, IUseBI=4.
 Internal  Forces:  Max     0.047261050 RMS     0.021951675
 Search for a local minimum.
 Step number   1 out of a maximum of   28
 All quantities printed in internal units (Hartrees-Bohrs-Radians)
 RMS Force = .21952D-01 SwitMx=.10000D-02 MixMth= 1
 Mixed Optimization -- RFO/linear search
 Second derivative matrix not updated -- first step.
 The second derivative matrix:
                          R1        R2        R3        R4        R5
           R1           0.36922
           R2           0.00000   0.36891
           R3           0.00000   0.00000   0.36922
           R4           0.00000   0.00000   0.00000   0.49398
           R5           0.00000   0.00000   0.00000   0.00000   0.49398
           R6           0.00000   0.00000   0.00000   0.00000   0.00000
           A1           0.00000   0.00000   0.00000   0.00000   0.00000
           A2           0.00000   0.00000   0.00000   0.00000   0.00000
           A3           0.00000   0.00000   0.00000   0.00000   0.00000
           A4           0.00000   0.00000   0.00000   0.00000   0.00000
           A5           0.00000   0.00000   0.00000   0.00000   0.00000
           A6           0.00000   0.00000   0.00000   0.00000   0.00000
           D1           0.00000   0.00000   0.00000   0.00000   0.00000
           D2           0.00000   0.00000   0.00000   0.00000   0.00000
           D3           0.00000   0.00000   0.00000   0.00000   0.00000
           D4           0.00000   0.00000   0.00000   0.00000   0.00000
           D5           0.00000   0.00000   0.00000   0.00000   0.00000
           D6           0.00000   0.00000   0.00000   0.00000   0.00000
                          R6        A1        A2        A3        A4
           R6           0.49399
           A1           0.00000   0.25000
           A2           0.00000   0.00000   0.25000
           A3           0.00000   0.00000   0.00000   0.25000
           A4           0.00000   0.00000   0.00000   0.00000   0.16000
           A5           0.00000   0.00000   0.00000   0.00000   0.00000
           A6           0.00000   0.00000   0.00000   0.00000   0.00000
           D1           0.00000   0.00000   0.00000   0.00000   0.00000
           D2           0.00000   0.00000   0.00000   0.00000   0.00000
           D3           0.00000   0.00000   0.00000   0.00000   0.00000
           D4           0.00000   0.00000   0.00000   0.00000   0.00000
           D5           0.00000   0.00000   0.00000   0.00000   0.00000
           D6           0.00000   0.00000   0.00000   0.00000   0.00000
                          A5        A6        D1        D2        D3
           A5           0.16000
           A6           0.00000   0.16000
           D1           0.00000   0.00000   0.01423
           D2           0.00000   0.00000   0.00000   0.01423
           D3           0.00000   0.00000   0.00000   0.00000   0.01420
           D4           0.00000   0.00000   0.00000   0.00000   0.00000
           D5           0.00000   0.00000   0.00000   0.00000   0.00000
           D6           0.00000   0.00000   0.00000   0.00000   0.00000
                          D4        D5        D6
           D4           0.01420
           D5           0.00000   0.01423
           D6           0.00000   0.00000   0.01423
 ITU=  0
     Eigenvalues ---    0.01420   0.01423   0.01423   0.01423   0.16000
     Eigenvalues ---    0.16000   0.16000   0.24999   0.24999   0.36891
     Eigenvalues ---    0.36922   0.36922   0.49398   0.49398   0.49399
 RFO step:  Lambda=-2.37017911D-02 EMin= 1.41964487D-02
 Linear search not attempted -- first point.
 Iteration  1 RMS(Cart)=  0.05723659 RMS(Int)=  0.00316142
 Iteration  2 RMS(Cart)=  0.00339821 RMS(Int)=  0.00008657
 Iteration  3 RMS(Cart)=  0.00000577 RMS(Int)=  0.00008645
 Iteration  4 RMS(Cart)=  0.00000000 RMS(Int)=  0.00008645
 ITry= 1 IFail=0 DXMaxC= 1.00D-01 DCOld= 1.00D+10 DXMaxT= 3.00D-01 DXLimC= 3.00D+00 Rises=F
 Variable       Old X    -DE/DX   Delta X   Delta X   Delta X     New X
                                 (Linear)    (Quad)   (Total)
    R1        2.75964  -0.04515   0.00000  -0.11491  -0.11491   2.64473
    R2        2.76011  -0.04726   0.00000  -0.12038  -0.12038   2.63973
    R3        2.75965  -0.04514   0.00000  -0.11489  -0.11489   2.64476
    R4        1.87178  -0.02266   0.00000  -0.04377  -0.04377   1.82801
    R5        1.87177  -0.02190   0.00000  -0.04231  -0.04231   1.82946
    R6        1.87177  -0.02265   0.00000  -0.04376  -0.04376   1.82801
    A1        2.09455  -0.00100   0.00000  -0.00385  -0.00404   2.09051
    A2        2.09393   0.00198   0.00000   0.00706   0.00686   2.10079
    A3        2.09454  -0.00100   0.00000  -0.00384  -0.00403   2.09051
    A4        1.82594   0.01705   0.00000   0.09280   0.09280   1.91874
    A5        1.82642   0.01633   0.00000   0.08887   0.08887   1.91529
    A6        1.82593   0.01705   0.00000   0.09282   0.09282   1.91876
    D1        1.62353   0.00107   0.00000   0.02808   0.02811   1.65164
    D2       -1.53754  -0.00034   0.00000  -0.00889  -0.00893  -1.54647
    D3        1.56102  -0.00069   0.00000  -0.01840  -0.01832   1.54269
    D4       -1.56109   0.00069   0.00000   0.01845   0.01837  -1.54272
    D5        1.53868   0.00037   0.00000   0.00960   0.00964   1.54832
    D6       -1.62239  -0.00104   0.00000  -0.02736  -0.02740  -1.64979
         Item               Value     Threshold  Converged?
 Maximum Force            0.047261     0.000450     NO 
 RMS     Force            0.021952     0.000300     NO 
 Maximum Displacement     0.100013     0.001800     NO 
 RMS     Displacement     0.057671     0.001200     NO 
 Predicted change in Energy=-1.272911D-02
 Lowest energy point so far.  Saving SCF results.
 GradGradGradGradGradGradGradGradGradGradGradGradGradGradGradGradGradGrad

 Leave Link  103 at Tue Mar 12 17:01:07 2019, MaxMem=   104857600 cpu:               0.1 elap:               0.0
 (Enter /sw/chem/g16/l202.exe)
                          Input orientation:                          
 ---------------------------------------------------------------------
 Center     Atomic      Atomic             Coordinates (Angstroms)
 Number     Number       Type             X           Y           Z
 ---------------------------------------------------------------------
      1          5           0       -0.742005    0.811688   -0.088693
      2          8           0       -0.328499    2.105315   -0.426667
      3          8           0       -1.976782    0.618894    0.535363
      4          8           0        0.043129   -0.294604   -0.432797
      5          1           0        0.227754    2.468104    0.276692
      6          1           0       -2.668400    0.513517   -0.133812
      7          1           0        0.682492   -0.476703    0.269915
 ---------------------------------------------------------------------
                    Distance matrix (angstroms):
                    1          2          3          4          5
     1  B    0.000000
     2  O    1.399531   0.000000
     3  O    1.396886   2.419046   0.000000
     4  O    1.399544   2.428530   2.419060   0.000000
     5  H    1.953882   0.967340   2.889026   2.858324   0.000000
     6  H    1.949857   2.845123   0.968109   2.845143   3.518044
     7  H    1.953904   2.859047   2.888344   0.967342   2.979718
                    6          7
     6  H    0.000000
     7  H    3.517387   0.000000
 Stoichiometry    BH3O3
 Framework group  C1[X(BH3O3)]
 Deg. of freedom    15
 Full point group                 C1      NOp   1
 RotChk:  IX=0 Diff= 3.27D-02
 Largest Abelian subgroup         C1      NOp   1
 Largest concise Abelian subgroup C1      NOp   1
                         Standard orientation:                         
 ---------------------------------------------------------------------
 Center     Atomic      Atomic             Coordinates (Angstroms)
 Number     Number       Type             X           Y           Z
 ---------------------------------------------------------------------
      1          5           0        0.002951   -0.000041   -0.008257
      2          8           0       -0.689217   -1.211619   -0.116269
      3          8           0        1.391857   -0.005443    0.140738
      4          8           0       -0.679771    1.216893   -0.116366
      5          1           0       -1.012428   -1.485498    0.753370
      6          1           0        1.814130   -0.007131   -0.730420
      7          1           0       -0.999406    1.494191    0.753513
 ---------------------------------------------------------------------
 Rotational constants (GHZ):           9.4017272           9.3759317           4.9001945
 Leave Link  202 at Tue Mar 12 17:01:07 2019, MaxMem=   104857600 cpu:               0.0 elap:               0.0
 (Enter /sw/chem/g16/l301.exe)
 Standard basis: 6-311++G(d,p) (5D, 7F)
 Ernie: Thresh=  0.10000D-02 Tol=  0.10000D-05 Strict=F.
 There are   113 symmetry adapted cartesian basis functions of A   symmetry.
 There are   109 symmetry adapted basis functions of A   symmetry.
   109 basis functions,   171 primitive gaussians,   113 cartesian basis functions
    16 alpha electrons       16 beta electrons
       nuclear repulsion energy       113.8858930691 Hartrees.
 IExCor=  402 DFT=T Ex+Corr=B3LYP ExCW=0 ScaHFX=  0.200000
 ScaDFX=  0.800000  0.720000  1.000000  0.810000 ScalE2=  1.000000  1.000000
 IRadAn=      5 IRanWt=     -1 IRanGd=            0 ICorTp=0 IEmpDi=  4
 NAtoms=    7 NActive=    7 NUniq=    7 SFac= 1.00D+00 NAtFMM=   60 NAOKFM=F Big=F
 Integral buffers will be    131072 words long.
 Raffenetti 2 integral format.
 Two-electron integral symmetry is turned on.
 Leave Link  301 at Tue Mar 12 17:01:07 2019, MaxMem=   104857600 cpu:               0.2 elap:               0.1
 (Enter /sw/chem/g16/l302.exe)
 NPDir=0 NMtPBC=     1 NCelOv=     1 NCel=       1 NClECP=     1 NCelD=      1
         NCelK=      1 NCelE2=     1 NClLst=     1 CellRange=     0.0.
 One-electron integrals computed using PRISM.
 One-electron integral symmetry used in STVInt
 NBasis=   109 RedAO= T EigKep=  6.20D-04  NBF=   109
 NBsUse=   109 1.00D-06 EigRej= -1.00D+00 NBFU=   109
 Precomputing XC quadrature grid using
 IXCGrd= 4 IRadAn=           5 IRanWt=          -1 IRanGd=           0 AccXCQ= 0.00D+00.
 Generated NRdTot=       0 NPtTot=           0 NUsed=           0 NTot=          32
 NSgBfM=   113   113   113   113   113 MxSgAt=     7 MxSgA2=     7.
 Leave Link  302 at Tue Mar 12 17:01:07 2019, MaxMem=   104857600 cpu:               0.6 elap:               0.2
 (Enter /sw/chem/g16/l303.exe)
 DipDrv:  MaxL=1.
 Leave Link  303 at Tue Mar 12 17:01:07 2019, MaxMem=   104857600 cpu:               0.1 elap:               0.0
 (Enter /sw/chem/g16/l401.exe)
 Initial guess from the checkpoint file:  "boricacid.chk"
 B after Tr=    -0.000000   -0.000000    0.000000
         Rot=    0.999987    0.000022    0.004909    0.001328 Ang=   0.58 deg.
 Guess basis will be translated and rotated to current coordinates.
 JPrj=2 DoOrth=T DoCkMO=T.
 Generating alternative initial guess.
 ExpMin= 3.15D-02 ExpMax= 8.59D+03 ExpMxC= 1.30D+03 IAcc=3 IRadAn=         5 AccDes= 0.00D+00
 Harris functional with IExCor=  402 and IRadAn=       5 diagonalized for initial guess.
 HarFok:  IExCor=  402 AccDes= 0.00D+00 IRadAn=         5 IDoV= 1 UseB2=F ITyADJ=14
 ICtDFT=  3500011 ScaDFX=  1.000000  1.000000  1.000000  1.000000
 FoFCou: FMM=F IPFlag=           0 FMFlag=      100000 FMFlg1=           0
         NFxFlg=           0 DoJE=T BraDBF=F KetDBF=T FulRan=T
         wScrn=  0.000000 ICntrl=       500 IOpCl=  0 I1Cent=   200000004 NGrid=           0
         NMat0=    1 NMatS0=      1 NMatT0=    0 NMatD0=    1 NMtDS0=    0 NMtDT0=    0
 Petite list used in FoFCou.
 Harris En= -252.618241560020    
 Leave Link  401 at Tue Mar 12 17:01:08 2019, MaxMem=   104857600 cpu:               2.9 elap:               0.8
 (Enter /sw/chem/g16/l502.exe)
 Keep R1 ints in memory in canonical form, NReq=21729851.
 FoFCou: FMM=F IPFlag=           0 FMFlag=           0 FMFlg1=           0
         NFxFlg=           0 DoJE=F BraDBF=F KetDBF=F FulRan=T
         wScrn=  0.000000 ICntrl=       600 IOpCl=  0 I1Cent=           0 NGrid=           0
         NMat0=    1 NMatS0=   5995 NMatT0=    0 NMatD0=    1 NMtDS0=    0 NMtDT0=    0
 Symmetry not used in FoFCou.
 Two-electron integral symmetry not used.
 Closed shell SCF:
 Using DIIS extrapolation, IDIIS=  1040.
 NGot=   104857600 LenX=    86857179 LenY=    86843969
 Requested convergence on RMS density matrix=1.00D-08 within 128 cycles.
 Requested convergence on MAX density matrix=1.00D-06.
 Requested convergence on             energy=1.00D-06.
 No special actions if energy rises.

 Cycle   1  Pass 1  IDiag  1:
 E= -252.527235857230    
 DIIS: error= 5.18D-03 at cycle   1 NSaved=   1.
 NSaved= 1 IEnMin= 1 EnMin= -252.527235857230     IErMin= 1 ErrMin= 5.18D-03
 ErrMax= 5.18D-03  0.00D+00 EMaxC= 1.00D-01 BMatC= 5.64D-03 BMatP= 5.64D-03
 IDIUse=3 WtCom= 9.48D-01 WtEn= 5.18D-02
 Coeff-Com:  0.100D+01
 Coeff-En:   0.100D+01
 Coeff:      0.100D+01
 Gap=     0.365 Goal=   None    Shift=    0.000
 GapD=    0.365 DampG=1.000 DampE=1.000 DampFc=1.0000 IDamp=-1.
 RMSDP=1.20D-03 MaxDP=1.56D-02              OVMax= 2.94D-02

 Cycle   2  Pass 1  IDiag  1:
 E= -252.533279069967     Delta-E=       -0.006043212737 Rises=F Damp=F
 DIIS: error= 2.71D-03 at cycle   2 NSaved=   2.
 NSaved= 2 IEnMin= 2 EnMin= -252.533279069967     IErMin= 2 ErrMin= 2.71D-03
 ErrMax= 2.71D-03  0.00D+00 EMaxC= 1.00D-01 BMatC= 6.55D-04 BMatP= 5.64D-03
 IDIUse=3 WtCom= 9.73D-01 WtEn= 2.71D-02
 Coeff-Com:  0.143D+00 0.857D+00
 Coeff-En:   0.000D+00 0.100D+01
 Coeff:      0.139D+00 0.861D+00
 Gap=     0.255 Goal=   None    Shift=    0.000
 RMSDP=3.25D-04 MaxDP=9.12D-03 DE=-6.04D-03 OVMax= 6.95D-03

 Cycle   3  Pass 1  IDiag  1:
 E= -252.533537840038     Delta-E=       -0.000258770071 Rises=F Damp=F
 DIIS: error= 1.99D-03 at cycle   3 NSaved=   3.
 NSaved= 3 IEnMin= 3 EnMin= -252.533537840038     IErMin= 3 ErrMin= 1.99D-03
 ErrMax= 1.99D-03  0.00D+00 EMaxC= 1.00D-01 BMatC= 3.34D-04 BMatP= 6.55D-04
 IDIUse=3 WtCom= 9.80D-01 WtEn= 1.99D-02
 Coeff-Com: -0.149D-01 0.412D+00 0.603D+00
 Coeff-En:   0.000D+00 0.312D+00 0.688D+00
 Coeff:     -0.146D-01 0.410D+00 0.605D+00
 Gap=     0.260 Goal=   None    Shift=    0.000
 RMSDP=1.27D-04 MaxDP=1.91D-03 DE=-2.59D-04 OVMax= 3.60D-03

 Cycle   4  Pass 1  IDiag  1:
 E= -252.533776350241     Delta-E=       -0.000238510203 Rises=F Damp=F
 DIIS: error= 4.76D-04 at cycle   4 NSaved=   4.
 NSaved= 4 IEnMin= 4 EnMin= -252.533776350241     IErMin= 4 ErrMin= 4.76D-04
 ErrMax= 4.76D-04  0.00D+00 EMaxC= 1.00D-01 BMatC= 2.84D-05 BMatP= 3.34D-04
 IDIUse=3 WtCom= 9.95D-01 WtEn= 4.76D-03
 Coeff-Com: -0.124D-01 0.179D+00 0.331D+00 0.503D+00
 Coeff-En:   0.000D+00 0.000D+00 0.000D+00 0.100D+01
 Coeff:     -0.123D-01 0.178D+00 0.330D+00 0.505D+00
 Gap=     0.259 Goal=   None    Shift=    0.000
 RMSDP=3.92D-05 MaxDP=8.38D-04 DE=-2.39D-04 OVMax= 1.28D-03

 Cycle   5  Pass 1  IDiag  1:
 E= -252.533795008177     Delta-E=       -0.000018657936 Rises=F Damp=F
 DIIS: error= 8.99D-05 at cycle   5 NSaved=   5.
 NSaved= 5 IEnMin= 5 EnMin= -252.533795008177     IErMin= 5 ErrMin= 8.99D-05
 ErrMax= 8.99D-05  0.00D+00 EMaxC= 1.00D-01 BMatC= 6.08D-07 BMatP= 2.84D-05
 IDIUse=1 WtCom= 1.00D+00 WtEn= 0.00D+00
 Coeff-Com: -0.237D-02 0.193D-01 0.589D-01 0.173D+00 0.751D+00
 Coeff:     -0.237D-02 0.193D-01 0.589D-01 0.173D+00 0.751D+00
 Gap=     0.259 Goal=   None    Shift=    0.000
 RMSDP=7.49D-06 MaxDP=2.18D-04 DE=-1.87D-05 OVMax= 1.81D-04

 Cycle   6  Pass 1  IDiag  1:
 E= -252.533795502892     Delta-E=       -0.000000494715 Rises=F Damp=F
 DIIS: error= 8.97D-06 at cycle   6 NSaved=   6.
 NSaved= 6 IEnMin= 6 EnMin= -252.533795502892     IErMin= 6 ErrMin= 8.97D-06
 ErrMax= 8.97D-06  0.00D+00 EMaxC= 1.00D-01 BMatC= 1.11D-08 BMatP= 6.08D-07
 IDIUse=1 WtCom= 1.00D+00 WtEn= 0.00D+00
 Coeff-Com:  0.469D-05-0.440D-02-0.843D-03 0.239D-01 0.169D+00 0.812D+00
 Coeff:      0.469D-05-0.440D-02-0.843D-03 0.239D-01 0.169D+00 0.812D+00
 Gap=     0.259 Goal=   None    Shift=    0.000
 RMSDP=1.36D-06 MaxDP=1.68D-05 DE=-4.95D-07 OVMax= 3.27D-05

 Cycle   7  Pass 1  IDiag  1:
 E= -252.533795508132     Delta-E=       -0.000000005240 Rises=F Damp=F
 DIIS: error= 5.18D-06 at cycle   7 NSaved=   7.
 NSaved= 7 IEnMin= 7 EnMin= -252.533795508132     IErMin= 7 ErrMin= 5.18D-06
 ErrMax= 5.18D-06  0.00D+00 EMaxC= 1.00D-01 BMatC= 4.58D-09 BMatP= 1.11D-08
 IDIUse=1 WtCom= 1.00D+00 WtEn= 0.00D+00
 Coeff-Com:  0.757D-04-0.337D-02-0.238D-02 0.983D-02 0.805D-01 0.494D+00
 Coeff-Com:  0.421D+00
 Coeff:      0.757D-04-0.337D-02-0.238D-02 0.983D-02 0.805D-01 0.494D+00
 Coeff:      0.421D+00
 Gap=     0.259 Goal=   None    Shift=    0.000
 RMSDP=4.70D-07 MaxDP=7.55D-06 DE=-5.24D-09 OVMax= 1.58D-05

 Cycle   8  Pass 1  IDiag  1:
 E= -252.533795511210     Delta-E=       -0.000000003079 Rises=F Damp=F
 DIIS: error= 6.20D-07 at cycle   8 NSaved=   8.
 NSaved= 8 IEnMin= 8 EnMin= -252.533795511210     IErMin= 8 ErrMin= 6.20D-07
 ErrMax= 6.20D-07  0.00D+00 EMaxC= 1.00D-01 BMatC= 7.59D-11 BMatP= 4.58D-09
 IDIUse=1 WtCom= 1.00D+00 WtEn= 0.00D+00
 Coeff-Com:  0.219D-04-0.390D-03-0.612D-03-0.264D-03-0.151D-02 0.171D-01
 Coeff-Com:  0.110D+00 0.876D+00
 Coeff:      0.219D-04-0.390D-03-0.612D-03-0.264D-03-0.151D-02 0.171D-01
 Coeff:      0.110D+00 0.876D+00
 Gap=     0.259 Goal=   None    Shift=    0.000
 RMSDP=7.58D-08 MaxDP=8.85D-07 DE=-3.08D-09 OVMax= 3.01D-06

 Cycle   9  Pass 1  IDiag  1:
 E= -252.533795511269     Delta-E=       -0.000000000059 Rises=F Damp=F
 DIIS: error= 1.23D-07 at cycle   9 NSaved=   9.
 NSaved= 9 IEnMin= 9 EnMin= -252.533795511269     IErMin= 9 ErrMin= 1.23D-07
 ErrMax= 1.23D-07  0.00D+00 EMaxC= 1.00D-01 BMatC= 1.66D-12 BMatP= 7.59D-11
 IDIUse=1 WtCom= 1.00D+00 WtEn= 0.00D+00
 Coeff-Com:  0.342D-05-0.667D-05-0.636D-04-0.237D-03-0.242D-02-0.820D-02
 Coeff-Com:  0.177D-01 0.216D+00 0.778D+00
 Coeff:      0.342D-05-0.667D-05-0.636D-04-0.237D-03-0.242D-02-0.820D-02
 Coeff:      0.177D-01 0.216D+00 0.778D+00
 Gap=     0.259 Goal=   None    Shift=    0.000
 RMSDP=1.66D-08 MaxDP=1.84D-07 DE=-5.89D-11 OVMax= 4.74D-07

 Cycle  10  Pass 1  IDiag  1:
 E= -252.533795511271     Delta-E=       -0.000000000002 Rises=F Damp=F
 DIIS: error= 2.05D-08 at cycle  10 NSaved=  10.
 NSaved=10 IEnMin=10 EnMin= -252.533795511271     IErMin=10 ErrMin= 2.05D-08
 ErrMax= 2.05D-08  0.00D+00 EMaxC= 1.00D-01 BMatC= 4.63D-14 BMatP= 1.66D-12
 IDIUse=1 WtCom= 1.00D+00 WtEn= 0.00D+00
 Coeff-Com: -0.337D-06 0.146D-04 0.173D-04-0.273D-04-0.389D-03-0.202D-02
 Coeff-Com: -0.189D-02-0.227D-02 0.133D+00 0.874D+00
 Coeff:     -0.337D-06 0.146D-04 0.173D-04-0.273D-04-0.389D-03-0.202D-02
 Coeff:     -0.189D-02-0.227D-02 0.133D+00 0.874D+00
 Gap=     0.259 Goal=   None    Shift=    0.000
 RMSDP=2.53D-09 MaxDP=3.31D-08 DE=-1.71D-12 OVMax= 1.24D-07

 SCF Done:  E(RB3LYP) =  -252.533795511     A.U. after   10 cycles
            NFock= 10  Conv=0.25D-08     -V/T= 2.0034
 KE= 2.516735980311D+02 PE=-8.240672389694D+02 EE= 2.059739523579D+02
 Leave Link  502 at Tue Mar 12 17:01:14 2019, MaxMem=   104857600 cpu:              25.9 elap:               6.7
 (Enter /sw/chem/g16/l701.exe)
 ... and contract with generalized density number  0.
 Compute integral first derivatives.
 Leave Link  701 at Tue Mar 12 17:01:18 2019, MaxMem=   104857600 cpu:               0.6 elap:               3.2
 (Enter /sw/chem/g16/l702.exe)
 L702 exits ... SP integral derivatives will be done elsewhere.
 Leave Link  702 at Tue Mar 12 17:01:18 2019, MaxMem=   104857600 cpu:               0.1 elap:               0.0
 (Enter /sw/chem/g16/l703.exe)
 Integral derivatives from FoFJK, PRISM(SPDF).
 Compute integral first derivatives, UseDBF=F ICtDFT=           0.
 Calling FoFJK, ICntrl=      2127 FMM=F ISym2X=0 I1Cent= 0 IOpClX= 0 NMat=1 NMatS=1 NMatT=0.
 FoFJK:  IHMeth= 1 ICntrl=    2127 DoSepK=F KAlg= 0 I1Cent=           0 FoldK=F
 IRaf=         0 NMat=       1 IRICut=       1 DoRegI=T DoRafI=F ISym2E= 0 IDoP0=0 IntGTp=1.
 FoFCou: FMM=F IPFlag=           0 FMFlag=      100000 FMFlg1=         800
         NFxFlg=           0 DoJE=F BraDBF=F KetDBF=F FulRan=T
         wScrn=  0.000000 ICntrl=      2127 IOpCl=  0 I1Cent=           0 NGrid=           0
         NMat0=    1 NMatS0=      1 NMatT0=    0 NMatD0=    1 NMtDS0=    0 NMtDT0=    0
 Symmetry not used in FoFCou.
 Leave Link  703 at Tue Mar 12 17:01:20 2019, MaxMem=   104857600 cpu:               8.0 elap:               2.0
 (Enter /sw/chem/g16/l716.exe)
 Dipole        =-1.52282250D-01 1.17886358D-03 5.90894371D-01
 ***** Axes restored to original set *****
 -------------------------------------------------------------------
 Center     Atomic                   Forces (Hartrees/Bohr)
 Number     Number              X              Y              Z
 -------------------------------------------------------------------
      1        5          -0.002939461   -0.000435304   -0.005834906
      2        8           0.001491760   -0.010783989    0.015563089
      3        8           0.005711695    0.000934970   -0.017705832
      4        8          -0.001785986    0.010672160    0.015611502
      5        1          -0.001158528    0.004468321   -0.008299326
      6        1          -0.001535739   -0.000263603    0.008970038
      7        1           0.000216259   -0.004592555   -0.008304565
 -------------------------------------------------------------------
 Cartesian Forces:  Max     0.017705832 RMS     0.008090512
 Leave Link  716 at Tue Mar 12 17:01:20 2019, MaxMem=   104857600 cpu:               0.1 elap:               0.0
 (Enter /sw/chem/g16/l103.exe)

 GradGradGradGradGradGradGradGradGradGradGradGradGradGradGradGradGradGrad
 Berny optimization.
 Using GEDIIS/GDIIS optimizer.
 FormGI is forming the generalized inverse of G from B-inverse, IUseBI=4.
 Internal  Forces:  Max     0.014597424 RMS     0.006947249
 Search for a local minimum.
 Step number   2 out of a maximum of   28
 All quantities printed in internal units (Hartrees-Bohrs-Radians)
 RMS Force = .69472D-02 SwitMx=.10000D-02 MixMth= 1
 Mixed Optimization -- RFO/linear search
 Update second derivatives using D2CorX and points    1    2
 DE= -1.60D-02 DEPred=-1.27D-02 R= 1.25D+00
 TightC=F SS=  1.41D+00  RLast= 2.72D-01 DXNew= 5.0454D-01 8.1669D-01
 Trust test= 1.25D+00 RLast= 2.72D-01 DXMaxT set to 5.05D-01
 The second derivative matrix:
                          R1        R2        R3        R4        R5
           R1           0.37349
           R2           0.00484   0.37436
           R3           0.00429   0.00486   0.37353
           R4          -0.00139  -0.00128  -0.00138   0.49160
           R5          -0.00184  -0.00176  -0.00183  -0.00253   0.49131
           R6          -0.00139  -0.00129  -0.00138  -0.00238  -0.00253
           A1          -0.00034  -0.00035  -0.00034  -0.00024  -0.00024
           A2           0.00016   0.00016   0.00016   0.00021   0.00022
           A3          -0.00033  -0.00034  -0.00033  -0.00024  -0.00024
           A4           0.02308   0.02414   0.02308   0.01200   0.01163
           A5           0.02177   0.02276   0.02176   0.01133   0.01099
           A6           0.02309   0.02414   0.02308   0.01200   0.01163
           D1           0.00028   0.00029   0.00028   0.00016   0.00016
           D2           0.00289   0.00304   0.00289   0.00134   0.00128
           D3           0.00131   0.00138   0.00131   0.00059   0.00056
           D4          -0.00130  -0.00137  -0.00130  -0.00059  -0.00056
           D5          -0.00283  -0.00297  -0.00283  -0.00131  -0.00125
           D6          -0.00022  -0.00022  -0.00022  -0.00013  -0.00013
                          R6        A1        A2        A3        A4
           R6           0.49160
           A1          -0.00024   0.24998
           A2           0.00021   0.00002   0.24998
           A3          -0.00024  -0.00002   0.00002   0.24998
           A4           0.01199   0.00058  -0.00095   0.00058   0.15032
           A5           0.01133   0.00055  -0.00090   0.00055  -0.00925
           A6           0.01200   0.00058  -0.00096   0.00058  -0.00968
           D1           0.00016   0.00001  -0.00001   0.00001  -0.00024
           D2           0.00134   0.00005  -0.00010   0.00005  -0.00012
           D3           0.00059   0.00002  -0.00005   0.00002   0.00006
           D4          -0.00059  -0.00002   0.00005  -0.00002  -0.00006
           D5          -0.00131  -0.00005   0.00010  -0.00005   0.00011
           D6          -0.00013  -0.00001   0.00001  -0.00001   0.00023
                          A5        A6        D1        D2        D3
           A5           0.15117
           A6          -0.00925   0.15032
           D1          -0.00023  -0.00024   0.01422
           D2          -0.00013  -0.00012  -0.00002   0.01434
           D3           0.00005   0.00006  -0.00001   0.00006   0.01423
           D4          -0.00005  -0.00006   0.00001  -0.00006  -0.00003
           D5           0.00012   0.00011   0.00002  -0.00011  -0.00006
           D6           0.00022   0.00023   0.00000   0.00002   0.00001
                          D4        D5        D6
           D4           0.01423
           D5           0.00006   0.01434
           D6          -0.00001  -0.00002   0.01423
 ITU=  1  0
 Use linear search instead of GDIIS.
     Eigenvalues ---    0.01417   0.01420   0.01423   0.01445   0.11087
     Eigenvalues ---    0.16000   0.16000   0.24986   0.24988   0.36902
     Eigenvalues ---    0.36922   0.40077   0.49002   0.49398   0.49402
 RFO step:  Lambda=-3.46366719D-03 EMin= 1.41736519D-02
 Quartic linear search produced a step of  0.35620.
 Iteration  1 RMS(Cart)=  0.05571129 RMS(Int)=  0.00316752
 Iteration  2 RMS(Cart)=  0.00367219 RMS(Int)=  0.00026690
 Iteration  3 RMS(Cart)=  0.00000535 RMS(Int)=  0.00026686
 Iteration  4 RMS(Cart)=  0.00000000 RMS(Int)=  0.00026686
 ITry= 1 IFail=0 DXMaxC= 1.02D-01 DCOld= 1.00D+10 DXMaxT= 5.05D-01 DXLimC= 3.00D+00 Rises=F
 Variable       Old X    -DE/DX   Delta X   Delta X   Delta X     New X
                                 (Linear)    (Quad)   (Total)
    R1        2.64473  -0.00749  -0.04093   0.00434  -0.03659   2.60814
    R2        2.63973  -0.00769  -0.04288   0.00513  -0.03775   2.60198
    R3        2.64476  -0.00748  -0.04092   0.00438  -0.03655   2.60821
    R4        1.82801  -0.00502  -0.01559  -0.00244  -0.01803   1.80998
    R5        1.82946  -0.00507  -0.01507  -0.00294  -0.01802   1.81145
    R6        1.82801  -0.00503  -0.01559  -0.00244  -0.01803   1.80998
    A1        2.09051  -0.00030  -0.00144   0.00075  -0.00134   2.08917
    A2        2.10079   0.00060   0.00244   0.00222   0.00401   2.10480
    A3        2.09051  -0.00030  -0.00144   0.00078  -0.00131   2.08920
    A4        1.91874   0.01459   0.03306   0.08672   0.11978   2.03852
    A5        1.91529   0.01383   0.03166   0.08183   0.11349   2.02877
    A6        1.91876   0.01460   0.03306   0.08674   0.11980   2.03856
    D1        1.65164   0.00085   0.01001   0.01693   0.02693   1.67857
    D2       -1.54647   0.00103  -0.00318   0.09371   0.09055  -1.45592
    D3        1.54269   0.00010  -0.00653   0.03833   0.03176   1.57446
    D4       -1.54272  -0.00010   0.00654  -0.03804  -0.03146  -1.57417
    D5        1.54832  -0.00098   0.00343  -0.09147  -0.08806   1.46026
    D6       -1.64979  -0.00081  -0.00976  -0.01470  -0.02444  -1.67423
         Item               Value     Threshold  Converged?
 Maximum Force            0.014597     0.000450     NO 
 RMS     Force            0.006947     0.000300     NO 
 Maximum Displacement     0.101850     0.001800     NO 
 RMS     Displacement     0.054230     0.001200     NO 
 Predicted change in Energy=-3.732134D-03
 Lowest energy point so far.  Saving SCF results.
 GradGradGradGradGradGradGradGradGradGradGradGradGradGradGradGradGradGrad

 Leave Link  103 at Tue Mar 12 17:01:20 2019, MaxMem=   104857600 cpu:               0.1 elap:               0.0
 (Enter /sw/chem/g16/l202.exe)
                          Input orientation:                          
 ---------------------------------------------------------------------
 Center     Atomic      Atomic             Coordinates (Angstroms)
 Number     Number       Type             X           Y           Z
 ---------------------------------------------------------------------
      1          5           0       -0.750421    0.810583   -0.102360
      2          8           0       -0.321420    2.091022   -0.387496
      3          8           0       -1.980435    0.618329    0.485841
      4          8           0        0.045935   -0.278363   -0.393869
      5          1           0        0.250660    2.508426    0.257392
      6          1           0       -2.722297    0.504798   -0.110496
      7          1           0        0.715668   -0.508585    0.250989
 ---------------------------------------------------------------------
                    Distance matrix (angstroms):
                    1          2          3          4          5
     1  B    0.000000
     2  O    1.380170   0.000000
     3  O    1.376909   2.384088   0.000000
     4  O    1.380204   2.397702   2.384140   0.000000
     5  H    2.003561   0.957801   2.932992   2.869189   0.000000
     6  H    1.995461   2.890855   0.958576   2.890805   3.603933
     7  H    2.003616   2.870744   2.931563   0.957803   3.052642
                    6          7
     6  H    0.000000
     7  H    3.602391   0.000000
 Stoichiometry    BH3O3
 Framework group  C1[X(BH3O3)]
 Deg. of freedom    15
 Full point group                 C1      NOp   1
 RotChk:  IX=0 Diff= 5.59D-02
 Largest Abelian subgroup         C1      NOp   1
 Largest concise Abelian subgroup C1      NOp   1
                         Standard orientation:                         
 ---------------------------------------------------------------------
 Center     Atomic      Atomic             Coordinates (Angstroms)
 Number     Number       Type             X           Y           Z
 ---------------------------------------------------------------------
      1          5           0        0.005984   -0.000092   -0.028185
      2          8           0       -0.678120   -1.196064   -0.108934
      3          8           0        1.372192   -0.005853    0.143047
      4          8           0       -0.668037    1.201617   -0.109156
      5          1           0       -1.076900   -1.520855    0.699069
      6          1           0        1.899640   -0.008032   -0.657366
      7          1           0       -1.060942    1.531746    0.699564
 ---------------------------------------------------------------------
 Rotational constants (GHZ):           9.5991305           9.5937039           4.9852210
 Leave Link  202 at Tue Mar 12 17:01:20 2019, MaxMem=   104857600 cpu:               0.1 elap:               0.0
 (Enter /sw/chem/g16/l301.exe)
 Standard basis: 6-311++G(d,p) (5D, 7F)
 Ernie: Thresh=  0.10000D-02 Tol=  0.10000D-05 Strict=F.
 There are   113 symmetry adapted cartesian basis functions of A   symmetry.
 There are   109 symmetry adapted basis functions of A   symmetry.
   109 basis functions,   171 primitive gaussians,   113 cartesian basis functions
    16 alpha electrons       16 beta electrons
       nuclear repulsion energy       115.0383222988 Hartrees.
 IExCor=  402 DFT=T Ex+Corr=B3LYP ExCW=0 ScaHFX=  0.200000
 ScaDFX=  0.800000  0.720000  1.000000  0.810000 ScalE2=  1.000000  1.000000
 IRadAn=      5 IRanWt=     -1 IRanGd=            0 ICorTp=0 IEmpDi=  4
 NAtoms=    7 NActive=    7 NUniq=    7 SFac= 1.00D+00 NAtFMM=   60 NAOKFM=F Big=F
 Integral buffers will be    131072 words long.
 Raffenetti 2 integral format.
 Two-electron integral symmetry is turned on.
 Leave Link  301 at Tue Mar 12 17:01:20 2019, MaxMem=   104857600 cpu:               0.2 elap:               0.1
 (Enter /sw/chem/g16/l302.exe)
 NPDir=0 NMtPBC=     1 NCelOv=     1 NCel=       1 NClECP=     1 NCelD=      1
         NCelK=      1 NCelE2=     1 NClLst=     1 CellRange=     0.0.
 One-electron integrals computed using PRISM.
 One-electron integral symmetry used in STVInt
 NBasis=   109 RedAO= T EigKep=  5.99D-04  NBF=   109
 NBsUse=   109 1.00D-06 EigRej= -1.00D+00 NBFU=   109
 Precomputing XC quadrature grid using
 IXCGrd= 4 IRadAn=           5 IRanWt=          -1 IRanGd=           0 AccXCQ= 0.00D+00.
 Generated NRdTot=       0 NPtTot=           0 NUsed=           0 NTot=          32
 NSgBfM=   113   113   113   113   113 MxSgAt=     7 MxSgA2=     7.
 Leave Link  302 at Tue Mar 12 17:01:20 2019, MaxMem=   104857600 cpu:               0.6 elap:               0.2
 (Enter /sw/chem/g16/l303.exe)
 DipDrv:  MaxL=1.
 Leave Link  303 at Tue Mar 12 17:01:20 2019, MaxMem=   104857600 cpu:               0.1 elap:               0.0
 (Enter /sw/chem/g16/l401.exe)
 Initial guess from the checkpoint file:  "boricacid.chk"
 B after Tr=     0.000000   -0.000000   -0.000000
         Rot=    0.999979    0.000052    0.006436    0.000190 Ang=   0.74 deg.
 Guess basis will be translated and rotated to current coordinates.
 JPrj=2 DoOrth=T DoCkMO=T.
 Generating alternative initial guess.
 ExpMin= 3.15D-02 ExpMax= 8.59D+03 ExpMxC= 1.30D+03 IAcc=3 IRadAn=         5 AccDes= 0.00D+00
 Harris functional with IExCor=  402 and IRadAn=       5 diagonalized for initial guess.
 HarFok:  IExCor=  402 AccDes= 0.00D+00 IRadAn=         5 IDoV= 1 UseB2=F ITyADJ=14
 ICtDFT=  3500011 ScaDFX=  1.000000  1.000000  1.000000  1.000000
 FoFCou: FMM=F IPFlag=           0 FMFlag=      100000 FMFlg1=           0
         NFxFlg=           0 DoJE=T BraDBF=F KetDBF=T FulRan=T
         wScrn=  0.000000 ICntrl=       500 IOpCl=  0 I1Cent=   200000004 NGrid=           0
         NMat0=    1 NMatS0=      1 NMatT0=    0 NMatD0=    1 NMtDS0=    0 NMtDT0=    0
 Petite list used in FoFCou.
 Harris En= -252.626936322517    
 Leave Link  401 at Tue Mar 12 17:01:21 2019, MaxMem=   104857600 cpu:               3.0 elap:               0.8
 (Enter /sw/chem/g16/l502.exe)
 Keep R1 ints in memory in canonical form, NReq=21729851.
 FoFCou: FMM=F IPFlag=           0 FMFlag=           0 FMFlg1=           0
         NFxFlg=           0 DoJE=F BraDBF=F KetDBF=F FulRan=T
         wScrn=  0.000000 ICntrl=       600 IOpCl=  0 I1Cent=           0 NGrid=           0
         NMat0=    1 NMatS0=   5995 NMatT0=    0 NMatD0=    1 NMtDS0=    0 NMtDT0=    0
 Symmetry not used in FoFCou.
 Two-electron integral symmetry not used.
 Closed shell SCF:
 Using DIIS extrapolation, IDIIS=  1040.
 NGot=   104857600 LenX=    86857179 LenY=    86843969
 Requested convergence on RMS density matrix=1.00D-08 within 128 cycles.
 Requested convergence on MAX density matrix=1.00D-06.
 Requested convergence on             energy=1.00D-06.
 No special actions if energy rises.

 Cycle   1  Pass 1  IDiag  1:
 E= -252.532641276239    
 DIIS: error= 5.27D-03 at cycle   1 NSaved=   1.
 NSaved= 1 IEnMin= 1 EnMin= -252.532641276239     IErMin= 1 ErrMin= 5.27D-03
 ErrMax= 5.27D-03  0.00D+00 EMaxC= 1.00D-01 BMatC= 4.03D-03 BMatP= 4.03D-03
 IDIUse=3 WtCom= 9.47D-01 WtEn= 5.27D-02
 Coeff-Com:  0.100D+01
 Coeff-En:   0.100D+01
 Coeff:      0.100D+01
 Gap=     0.372 Goal=   None    Shift=    0.000
 GapD=    0.372 DampG=1.000 DampE=1.000 DampFc=1.0000 IDamp=-1.
 RMSDP=1.25D-03 MaxDP=1.46D-02              OVMax= 2.30D-02

 Cycle   2  Pass 1  IDiag  1:
 E= -252.537804527594     Delta-E=       -0.005163251355 Rises=F Damp=F
 DIIS: error= 8.96D-04 at cycle   2 NSaved=   2.
 NSaved= 2 IEnMin= 2 EnMin= -252.537804527594     IErMin= 2 ErrMin= 8.96D-04
 ErrMax= 8.96D-04  0.00D+00 EMaxC= 1.00D-01 BMatC= 8.97D-05 BMatP= 4.03D-03
 IDIUse=3 WtCom= 9.91D-01 WtEn= 8.96D-03
 Coeff-Com: -0.304D-01 0.103D+01
 Coeff-En:   0.000D+00 0.100D+01
 Coeff:     -0.301D-01 0.103D+01
 Gap=     0.259 Goal=   None    Shift=    0.000
 RMSDP=2.23D-04 MaxDP=3.09D-03 DE=-5.16D-03 OVMax= 3.35D-03

 Cycle   3  Pass 1  IDiag  1:
 E= -252.537859275938     Delta-E=       -0.000054748344 Rises=F Damp=F
 DIIS: error= 5.45D-04 at cycle   3 NSaved=   3.
 NSaved= 3 IEnMin= 3 EnMin= -252.537859275938     IErMin= 3 ErrMin= 5.45D-04
 ErrMax= 5.45D-04  0.00D+00 EMaxC= 1.00D-01 BMatC= 3.40D-05 BMatP= 8.97D-05
 IDIUse=3 WtCom= 9.95D-01 WtEn= 5.45D-03
 Coeff-Com: -0.230D-01 0.394D+00 0.629D+00
 Coeff-En:   0.000D+00 0.000D+00 0.100D+01
 Coeff:     -0.229D-01 0.392D+00 0.631D+00
 Gap=     0.261 Goal=   None    Shift=    0.000
 RMSDP=5.65D-05 MaxDP=1.29D-03 DE=-5.47D-05 OVMax= 1.51D-03

 Cycle   4  Pass 1  IDiag  1:
 E= -252.537884795820     Delta-E=       -0.000025519882 Rises=F Damp=F
 DIIS: error= 1.75D-04 at cycle   4 NSaved=   4.
 NSaved= 4 IEnMin= 4 EnMin= -252.537884795820     IErMin= 4 ErrMin= 1.75D-04
 ErrMax= 1.75D-04  0.00D+00 EMaxC= 1.00D-01 BMatC= 3.81D-06 BMatP= 3.40D-05
 IDIUse=3 WtCom= 9.98D-01 WtEn= 1.75D-03
 Coeff-Com: -0.859D-02 0.133D+00 0.317D+00 0.559D+00
 Coeff-En:   0.000D+00 0.000D+00 0.000D+00 0.100D+01
 Coeff:     -0.858D-02 0.133D+00 0.316D+00 0.559D+00
 Gap=     0.260 Goal=   None    Shift=    0.000
 RMSDP=1.59D-05 MaxDP=3.51D-04 DE=-2.55D-05 OVMax= 4.98D-04

 Cycle   5  Pass 1  IDiag  1:
 E= -252.537887223244     Delta-E=       -0.000002427425 Rises=F Damp=F
 DIIS: error= 5.61D-05 at cycle   5 NSaved=   5.
 NSaved= 5 IEnMin= 5 EnMin= -252.537887223244     IErMin= 5 ErrMin= 5.61D-05
 ErrMax= 5.61D-05  0.00D+00 EMaxC= 1.00D-01 BMatC= 4.50D-07 BMatP= 3.81D-06
 IDIUse=1 WtCom= 1.00D+00 WtEn= 0.00D+00
 Coeff-Com: -0.170D-02 0.168D-01 0.962D-01 0.304D+00 0.584D+00
 Coeff:     -0.170D-02 0.168D-01 0.962D-01 0.304D+00 0.584D+00
 Gap=     0.260 Goal=   None    Shift=    0.000
 RMSDP=5.47D-06 MaxDP=1.30D-04 DE=-2.43D-06 OVMax= 1.55D-04

 Cycle   6  Pass 1  IDiag  1:
 E= -252.537887531773     Delta-E=       -0.000000308529 Rises=F Damp=F
 DIIS: error= 1.28D-05 at cycle   6 NSaved=   6.
 NSaved= 6 IEnMin= 6 EnMin= -252.537887531773     IErMin= 6 ErrMin= 1.28D-05
 ErrMax= 1.28D-05  0.00D+00 EMaxC= 1.00D-01 BMatC= 1.66D-08 BMatP= 4.50D-07
 IDIUse=1 WtCom= 1.00D+00 WtEn= 0.00D+00
 Coeff-Com:  0.199D-03-0.785D-02 0.807D-02 0.693D-01 0.219D+00 0.711D+00
 Coeff:      0.199D-03-0.785D-02 0.807D-02 0.693D-01 0.219D+00 0.711D+00
 Gap=     0.260 Goal=   None    Shift=    0.000
 RMSDP=1.45D-06 MaxDP=1.39D-05 DE=-3.09D-07 OVMax= 3.75D-05

 Cycle   7  Pass 1  IDiag  1:
 E= -252.537887542299     Delta-E=       -0.000000010526 Rises=F Damp=F
 DIIS: error= 5.76D-06 at cycle   7 NSaved=   7.
 NSaved= 7 IEnMin= 7 EnMin= -252.537887542299     IErMin= 7 ErrMin= 5.76D-06
 ErrMax= 5.76D-06  0.00D+00 EMaxC= 1.00D-01 BMatC= 4.16D-09 BMatP= 1.66D-08
 IDIUse=1 WtCom= 1.00D+00 WtEn= 0.00D+00
 Coeff-Com:  0.204D-03-0.536D-02 0.123D-03 0.254D-01 0.931D-01 0.413D+00
 Coeff-Com:  0.474D+00
 Coeff:      0.204D-03-0.536D-02 0.123D-03 0.254D-01 0.931D-01 0.413D+00
 Coeff:      0.474D+00
 Gap=     0.260 Goal=   None    Shift=    0.000
 RMSDP=3.77D-07 MaxDP=7.13D-06 DE=-1.05D-08 OVMax= 1.36D-05

 Cycle   8  Pass 1  IDiag  1:
 E= -252.537887545052     Delta-E=       -0.000000002752 Rises=F Damp=F
 DIIS: error= 8.42D-07 at cycle   8 NSaved=   8.
 NSaved= 8 IEnMin= 8 EnMin= -252.537887545052     IErMin= 8 ErrMin= 8.42D-07
 ErrMax= 8.42D-07  0.00D+00 EMaxC= 1.00D-01 BMatC= 7.39D-11 BMatP= 4.16D-09
 IDIUse=1 WtCom= 1.00D+00 WtEn= 0.00D+00
 Coeff-Com:  0.442D-04-0.884D-03-0.910D-03 0.472D-03 0.166D-02 0.447D-01
 Coeff-Com:  0.132D+00 0.823D+00
 Coeff:      0.442D-04-0.884D-03-0.910D-03 0.472D-03 0.166D-02 0.447D-01
 Coeff:      0.132D+00 0.823D+00
 Gap=     0.260 Goal=   None    Shift=    0.000
 RMSDP=9.35D-08 MaxDP=1.28D-06 DE=-2.75D-09 OVMax= 3.02D-06

 Cycle   9  Pass 1  IDiag  1:
 E= -252.537887545108     Delta-E=       -0.000000000057 Rises=F Damp=F
 DIIS: error= 1.35D-07 at cycle   9 NSaved=   9.
 NSaved= 9 IEnMin= 9 EnMin= -252.537887545108     IErMin= 9 ErrMin= 1.35D-07
 ErrMax= 1.35D-07  0.00D+00 EMaxC= 1.00D-01 BMatC= 1.78D-12 BMatP= 7.39D-11
 IDIUse=1 WtCom= 1.00D+00 WtEn= 0.00D+00
 Coeff-Com:  0.282D-06 0.551D-04-0.159D-03-0.960D-03-0.407D-02-0.809D-02
 Coeff-Com:  0.109D-01 0.193D+00 0.809D+00
 Coeff:      0.282D-06 0.551D-04-0.159D-03-0.960D-03-0.407D-02-0.809D-02
 Coeff:      0.109D-01 0.193D+00 0.809D+00
 Gap=     0.260 Goal=   None    Shift=    0.000
 RMSDP=1.61D-08 MaxDP=1.84D-07 DE=-5.67D-11 OVMax= 6.54D-07

 Cycle  10  Pass 1  IDiag  1:
 E= -252.537887545108     Delta-E=       -0.000000000000 Rises=F Damp=F
 DIIS: error= 9.88D-09 at cycle  10 NSaved=  10.
 NSaved=10 IEnMin=10 EnMin= -252.537887545108     IErMin=10 ErrMin= 9.88D-09
 ErrMax= 9.88D-09  0.00D+00 EMaxC= 1.00D-01 BMatC= 2.17D-14 BMatP= 1.78D-12
 IDIUse=1 WtCom= 1.00D+00 WtEn= 0.00D+00
 Coeff-Com: -0.988D-06 0.309D-04-0.312D-05-0.170D-03-0.627D-03-0.216D-02
 Coeff-Com: -0.113D-02 0.860D-02 0.114D+00 0.881D+00
 Coeff:     -0.988D-06 0.309D-04-0.312D-05-0.170D-03-0.627D-03-0.216D-02
 Coeff:     -0.113D-02 0.860D-02 0.114D+00 0.881D+00
 Gap=     0.260 Goal=   None    Shift=    0.000
 RMSDP=2.24D-09 MaxDP=3.16D-08 DE=-1.71D-13 OVMax= 7.53D-08

 SCF Done:  E(RB3LYP) =  -252.537887545     A.U. after   10 cycles
            NFock= 10  Conv=0.22D-08     -V/T= 2.0030
 KE= 2.517937220654D+02 PE=-8.265451977374D+02 EE= 2.071752658282D+02
 Leave Link  502 at Tue Mar 12 17:01:28 2019, MaxMem=   104857600 cpu:              26.9 elap:               7.0
 (Enter /sw/chem/g16/l701.exe)
 ... and contract with generalized density number  0.
 Compute integral first derivatives.
 Leave Link  701 at Tue Mar 12 17:01:28 2019, MaxMem=   104857600 cpu:               0.5 elap:               0.2
 (Enter /sw/chem/g16/l702.exe)
 L702 exits ... SP integral derivatives will be done elsewhere.
 Leave Link  702 at Tue Mar 12 17:01:28 2019, MaxMem=   104857600 cpu:               0.1 elap:               0.0
 (Enter /sw/chem/g16/l703.exe)
 Integral derivatives from FoFJK, PRISM(SPDF).
 Compute integral first derivatives, UseDBF=F ICtDFT=           0.
 Calling FoFJK, ICntrl=      2127 FMM=F ISym2X=0 I1Cent= 0 IOpClX= 0 NMat=1 NMatS=1 NMatT=0.
 FoFJK:  IHMeth= 1 ICntrl=    2127 DoSepK=F KAlg= 0 I1Cent=           0 FoldK=F
 IRaf=         0 NMat=       1 IRICut=       1 DoRegI=T DoRafI=F ISym2E= 0 IDoP0=0 IntGTp=1.
 FoFCou: FMM=F IPFlag=           0 FMFlag=      100000 FMFlg1=         800
         NFxFlg=           0 DoJE=F BraDBF=F KetDBF=F FulRan=T
         wScrn=  0.000000 ICntrl=      2127 IOpCl=  0 I1Cent=           0 NGrid=           0
         NMat0=    1 NMatS0=      1 NMatT0=    0 NMatD0=    1 NMtDS0=    0 NMtDT0=    0
 Symmetry not used in FoFCou.
 Leave Link  703 at Tue Mar 12 17:01:30 2019, MaxMem=   104857600 cpu:               8.1 elap:               2.0
 (Enter /sw/chem/g16/l716.exe)
 Dipole        =-1.79723052D-01 2.13329794D-03 5.43635861D-01
 ***** Axes restored to original set *****
 -------------------------------------------------------------------
 Center     Atomic                   Forces (Hartrees/Bohr)
 Number     Number              X              Y              Z
 -------------------------------------------------------------------
      1        5           0.005573886    0.000852984    0.004602922
      2        8          -0.002349474    0.001849621    0.002641765
      3        8          -0.004144094   -0.000603089   -0.007172051
      4        8          -0.001550263   -0.002417598    0.002585173
      5        1           0.002710625    0.001832909   -0.002597393
      6        1          -0.003309088   -0.000528938    0.002488346
      7        1           0.003068408   -0.000985889   -0.002548763
 -------------------------------------------------------------------
 Cartesian Forces:  Max     0.007172051 RMS     0.003121111
 Leave Link  716 at Tue Mar 12 17:01:30 2019, MaxMem=   104857600 cpu:               0.1 elap:               0.0
 (Enter /sw/chem/g16/l103.exe)

 GradGradGradGradGradGradGradGradGradGradGradGradGradGradGradGradGradGrad
 Berny optimization.
 Using GEDIIS/GDIIS optimizer.
 FormGI is forming the generalized inverse of G from B-inverse, IUseBI=4.
 Internal  Forces:  Max     0.007305335 RMS     0.003436174
 Search for a local minimum.
 Step number   3 out of a maximum of   28
 All quantities printed in internal units (Hartrees-Bohrs-Radians)
 RMS Force = .34362D-02 SwitMx=.10000D-02 MixMth= 1
 Mixed Optimization -- RFO/linear search
 Update second derivatives using D2CorX and points    1    2    3
 DE= -4.09D-03 DEPred=-3.73D-03 R= 1.10D+00
 TightC=F SS=  1.41D+00  RLast= 2.57D-01 DXNew= 8.4853D-01 7.7040D-01
 Trust test= 1.10D+00 RLast= 2.57D-01 DXMaxT set to 7.70D-01
 The second derivative matrix:
                          R1        R2        R3        R4        R5
           R1           0.40747
           R2           0.04413   0.41962
           R3           0.03837   0.04426   0.40771
           R4           0.01279   0.01539   0.01285   0.49707
           R5           0.01360   0.01630   0.01367   0.00356   0.49805
           R6           0.01278   0.01537   0.01284   0.00309   0.00355
           A1          -0.00069  -0.00071  -0.00069  -0.00044  -0.00044
           A2           0.00187   0.00196   0.00187   0.00120   0.00122
           A3          -0.00061  -0.00063  -0.00061  -0.00041  -0.00041
           A4           0.01818   0.01717   0.01812   0.01218   0.01120
           A5           0.02385   0.02365   0.02380   0.01475   0.01397
           A6           0.01823   0.01723   0.01817   0.01221   0.01123
           D1           0.01259   0.01397   0.01261   0.00616   0.00642
           D2           0.00179   0.00174   0.00178   0.00094   0.00083
           D3          -0.00538  -0.00609  -0.00539  -0.00260  -0.00278
           D4           0.00543   0.00615   0.00544   0.00262   0.00281
           D5          -0.00150  -0.00142  -0.00150  -0.00080  -0.00069
           D6          -0.01230  -0.01366  -0.01232  -0.00602  -0.00627
                          R6        A1        A2        A3        A4
           R6           0.49707
           A1          -0.00044   0.24998
           A2           0.00120   0.00004   0.24989
           A3          -0.00041  -0.00002   0.00004   0.24998
           A4           0.01218   0.00091  -0.00255   0.00087   0.13970
           A5           0.01475   0.00086  -0.00236   0.00083  -0.02239
           A6           0.01221   0.00091  -0.00255   0.00087  -0.02032
           D1           0.00616   0.00001   0.00005   0.00002  -0.00615
           D2           0.00094   0.00007  -0.00019   0.00007  -0.00029
           D3          -0.00260   0.00003  -0.00012   0.00002   0.00292
           D4           0.00262  -0.00003   0.00012  -0.00002  -0.00294
           D5          -0.00080  -0.00007   0.00019  -0.00006   0.00016
           D6          -0.00602  -0.00001  -0.00005  -0.00002   0.00602
                          A5        A6        D1        D2        D3
           A5           0.13665
           A6          -0.02241   0.13965
           D1          -0.00432  -0.00614   0.01690
           D2          -0.00055  -0.00030  -0.00049   0.01436
           D3           0.00188   0.00292  -0.00157   0.00031   0.01514
           D4          -0.00190  -0.00294   0.00158  -0.00031  -0.00094
           D5           0.00044   0.00016   0.00053  -0.00014  -0.00034
           D6           0.00421   0.00601  -0.00262   0.00048   0.00155
                          D4        D5        D6
           D4           0.01515
           D5           0.00034   0.01438
           D6          -0.00156  -0.00052   0.01681
 ITU=  1  1  0
 Use linear search instead of GDIIS.
     Eigenvalues ---    0.01160   0.01420   0.01423   0.01587   0.08967
     Eigenvalues ---    0.16000   0.16078   0.24999   0.25000   0.36900
[...]
     16  0.418072D-03 -0.210399D-03 -0.449256D-03 -0.105863D-02  0.763080D-05
     17 -0.208102D-02 -0.197203D-03  0.893079D-04  0.147156D-03 -0.167430D-03
     18 -0.480714D-04 -0.176022D-02  0.111060D-03 -0.118251D-03  0.194394D-02
     19 -0.141249D-01  0.210703D-01  0.145230D-02  0.103964D-02  0.104708D-03
     20 -0.331661D-01 -0.205367D-03 -0.597832D-03 -0.311168D-02 -0.408455D-03
     21 -0.187028D-02 -0.665111D-02 -0.423425D-04 -0.478704D-03  0.167509D-02
               16            17            18            19            20 
     16  0.108354D+00
     17  0.176338D+00  0.467697D+00
     18  0.116030D-01  0.336922D-01  0.116121D-01
     19  0.751590D-03  0.383142D-03 -0.411291D-04  0.543084D+00
     20  0.322884D-03 -0.408485D-03  0.400052D-04  0.213762D-01  0.344608D-01
     21 -0.470431D-04  0.372200D-04 -0.999827D-03 -0.210379D-01  0.171309D-02
               21 
     21  0.641078D-02
 FormGI is forming the generalized inverse of G from B-inverse, IUseBI=4.
 Force constants in internal coordinates: 
                1             2             3             4             5 
      1  0.410627D+00
      2  0.430041D-01  0.427943D+00
      3  0.386163D-01  0.427274D-01  0.387651D+00
      4 -0.234621D-02 -0.124971D-02 -0.222621D-02  0.548589D+00
      5 -0.156448D-02  0.119784D-02 -0.465147D-02  0.721088D-04  0.541676D+00
      6 -0.203563D-02 -0.210201D-02 -0.215397D-03  0.142920D-02 -0.601050D-03
      7  0.229183D-01  0.235201D-01 -0.401850D-01  0.731019D-02  0.570077D-02
      8  0.143988D-01 -0.362510D-01  0.110692D-01 -0.890939D-02  0.193052D-02
      9 -0.373171D-01  0.127309D-01  0.291159D-01  0.159920D-02 -0.763129D-02
     10  0.346886D-01  0.376425D-02  0.371575D-02  0.221055D-01  0.431978D-03
     11  0.434050D-02  0.338198D-01 -0.287053D-03  0.861370D-03  0.283434D-01
     12  0.426363D-02  0.471931D-02  0.311274D-01  0.133411D-02 -0.557930D-03
     13  0.000000D+00  0.000000D+00  0.244206D-05  0.000000D+00  0.000000D+00
     14 -0.156736D-05  0.000000D+00  0.000000D+00 -0.103513D-05  0.000000D+00
     15 -0.118458D-05 -0.166319D-05  0.000000D+00  0.000000D+00  0.000000D+00
     16  0.104169D-05 -0.189951D-05  0.141518D-05  0.000000D+00  0.000000D+00
     17  0.267681D-05  0.106811D-05 -0.188394D-05  0.000000D+00  0.000000D+00
     18  0.000000D+00  0.000000D+00 -0.212664D-05  0.000000D+00  0.000000D+00
                6             7             8             9            10 
      6  0.544559D+00
      7  0.846493D-03  0.133184D+00
      8 -0.908373D-02 -0.666955D-01  0.137257D+00
      9  0.823723D-02 -0.664887D-01 -0.705615D-01  0.137050D+00
     10  0.150889D-02  0.944477D-02 -0.628764D-02 -0.315713D-02  0.113121D+00
     11 -0.109121D-02  0.167387D-01  0.305669D-03 -0.170444D-01  0.338426D-02
     12  0.199431D-01 -0.538246D-02 -0.738618D-02  0.127686D-01  0.105020D-01
     13  0.000000D+00 -0.225032D-05  0.100206D-05  0.232533D-05  0.119786D-05
     14  0.000000D+00 -0.120457D-05  0.312348D-05 -0.276647D-05  0.000000D+00
     15  0.000000D+00  0.000000D+00 -0.178372D-05  0.110930D-05  0.000000D+00
     16  0.000000D+00 -0.185392D-05  0.343788D-05  0.000000D+00  0.000000D+00
     17  0.000000D+00  0.219797D-05  0.129306D-05 -0.262122D-05  0.293439D-05
     18  0.000000D+00 -0.272494D-05  0.319133D-05 -0.154798D-05  0.163378D-05
               11            12            13            14            15 
     11  0.121778D+00
     12  0.133859D-02  0.111922D+00
     13 -0.121315D-05  0.204557D-05  0.161514D-01
     14  0.000000D+00  0.266296D-05 -0.640822D-02  0.113444D-01
     15  0.000000D+00  0.000000D+00 -0.123903D-01  0.747397D-02  0.161808D-01
     16 -0.142711D-05  0.000000D+00  0.852296D-02 -0.898311D-02 -0.223383D-02
     17  0.000000D+00  0.000000D+00  0.919378D-02 -0.902473D-02 -0.972782D-02
     18  0.185257D-05  0.183317D-05 -0.136796D-01  0.897477D-02  0.104127D-01
               16            17            18 
     16  0.139947D-01
     17  0.716117D-02  0.116388D-01
     18 -0.105884D-01 -0.683309D-02  0.161364D-01
 Leave Link  716 at Tue Mar 12 17:05:17 2019, MaxMem=   104857600 cpu:               0.1 elap:               0.0
 (Enter /sw/chem/g16/l103.exe)

 GradGradGradGradGradGradGradGradGradGradGradGradGradGradGradGradGradGrad
 Berny optimization.
 Red2BG is reusing G-inverse.
 Internal  Forces:  Max     0.000037868 RMS     0.000015513
 Search for a local minimum.
 Step number   1 out of a maximum of    2
 All quantities printed in internal units (Hartrees-Bohrs-Radians)
 Second derivative matrix not updated -- analytic derivatives used.
 The second derivative matrix:
                          R1        R2        R3        R4        R5
           R1           0.41063
           R2           0.04300   0.42794
           R3           0.03862   0.04273   0.38765
           R4          -0.00235  -0.00125  -0.00223   0.54859
           R5          -0.00156   0.00120  -0.00465   0.00007   0.54168
           R6          -0.00204  -0.00210  -0.00022   0.00143  -0.00060
           A1           0.02292   0.02352  -0.04019   0.00731   0.00570
           A2           0.01440  -0.03625   0.01107  -0.00891   0.00193
           A3          -0.03732   0.01273   0.02912   0.00160  -0.00763
           A4           0.03469   0.00376   0.00372   0.02211   0.00043
           A5           0.00434   0.03382  -0.00029   0.00086   0.02834
           A6           0.00426   0.00472   0.03113   0.00133  -0.00056
           D1          -0.00000   0.00000   0.00000  -0.00000  -0.00000
           D2          -0.00000  -0.00000   0.00000  -0.00000  -0.00000
           D3          -0.00000  -0.00000  -0.00000  -0.00000   0.00000
           D4           0.00000  -0.00000   0.00000  -0.00000   0.00000
           D5           0.00000   0.00000  -0.00000   0.00000  -0.00000
           D6           0.00000  -0.00000  -0.00000  -0.00000   0.00000
                          R6        A1        A2        A3        A4
           R6           0.54456
           A1           0.00085   0.13318
           A2          -0.00908  -0.06670   0.13726
           A3           0.00824  -0.06649  -0.07056   0.13705
           A4           0.00151   0.00944  -0.00629  -0.00316   0.11312
           A5          -0.00109   0.01674   0.00031  -0.01704   0.00338
           A6           0.01994  -0.00538  -0.00739   0.01277   0.01050
           D1          -0.00000  -0.00000   0.00000   0.00000   0.00000
           D2           0.00000  -0.00000   0.00000  -0.00000   0.00000
           D3           0.00000  -0.00000  -0.00000   0.00000  -0.00000
           D4          -0.00000  -0.00000   0.00000  -0.00000   0.00000
           D5          -0.00000   0.00000   0.00000  -0.00000   0.00000
           D6           0.00000  -0.00000   0.00000  -0.00000   0.00000
                          A5        A6        D1        D2        D3
           A5           0.12178
           A6           0.00134   0.11192
           D1          -0.00000   0.00000   0.01615
           D2           0.00000   0.00000  -0.00641   0.01134
           D3           0.00000   0.00000  -0.01239   0.00747   0.01618
           D4          -0.00000  -0.00000   0.00852  -0.00898  -0.00223
           D5           0.00000   0.00000   0.00919  -0.00902  -0.00973
           D6           0.00000   0.00000  -0.01368   0.00897   0.01041
                          D4        D5        D6
           D4           0.01399
           D5           0.00716   0.01164
           D6          -0.01059  -0.00683   0.01614
 ITU=  0
     Eigenvalues ---    0.00399   0.00874   0.01379   0.05892   0.09717
     Eigenvalues ---    0.10779   0.11751   0.18067   0.19779   0.38232
     Eigenvalues ---    0.39210   0.49947   0.54358   0.54601   0.55095
 Angle between quadratic step and forces=  49.26 degrees.
 Linear search not attempted -- first point.
 Iteration  1 RMS(Cart)=  0.00023151 RMS(Int)=  0.00000005
 Iteration  2 RMS(Cart)=  0.00000005 RMS(Int)=  0.00000000
 ITry= 1 IFail=0 DXMaxC= 5.71D-04 DCOld= 1.00D+10 DXMaxT= 3.00D-01 DXLimC= 3.00D+00 Rises=F
 Variable       Old X    -DE/DX   Delta X   Delta X   Delta X     New X
                                 (Linear)    (Quad)   (Total)
    R1        2.59005   0.00002   0.00000   0.00009   0.00009   2.59014
    R2        2.57590  -0.00000   0.00000  -0.00002  -0.00002   2.57588
    R3        2.61045  -0.00002   0.00000  -0.00008  -0.00008   2.61037
    R4        1.81182  -0.00000   0.00000  -0.00000  -0.00000   1.81182
    R5        1.81626   0.00001   0.00000   0.00002   0.00002   1.81627
    R6        1.81324  -0.00000   0.00000   0.00000   0.00000   1.81324
    A1        2.03578  -0.00004   0.00000  -0.00024  -0.00024   2.03553
    A2        2.18499   0.00000   0.00000   0.00002   0.00002   2.18501
    A3        2.06242   0.00003   0.00000   0.00023   0.00023   2.06264
    A4        2.02163   0.00001   0.00000   0.00010   0.00010   2.02173
    A5        1.95734   0.00002   0.00000   0.00025   0.00025   1.95759
    A6        2.03307  -0.00001   0.00000  -0.00012  -0.00012   2.03294
    D1       -3.14141   0.00000   0.00000  -0.00018  -0.00018  -3.14159
    D2        0.00024  -0.00000   0.00000  -0.00024  -0.00024   0.00000
    D3       -3.14137  -0.00000   0.00000  -0.00022  -0.00022   3.14159
    D4        0.00017   0.00000   0.00000  -0.00017  -0.00017   0.00000
    D5        0.00021   0.00000   0.00000  -0.00021  -0.00021   0.00000
    D6       -3.14132  -0.00000   0.00000  -0.00027  -0.00027  -3.14159
         Item               Value     Threshold  Converged?
 Maximum Force            0.000038     0.000450     YES
 RMS     Force            0.000016     0.000300     YES
 Maximum Displacement     0.000571     0.001800     YES
 RMS     Displacement     0.000232     0.001200     YES
 Predicted change in Energy=-1.516155D-08
 Optimization completed.
    -- Stationary point found.
                           ----------------------------
                           !   Optimized Parameters   !
                           ! (Angstroms and Degrees)  !
 --------------------------                            --------------------------
 ! Name  Definition              Value          Derivative Info.                !
 --------------------------------------------------------------------------------
 ! R1    R(1,2)                  1.3706         -DE/DX =    0.0                 !
 ! R2    R(1,3)                  1.3631         -DE/DX =    0.0                 !
 ! R3    R(1,4)                  1.3814         -DE/DX =    0.0                 !
 ! R4    R(2,5)                  0.9588         -DE/DX =    0.0                 !
 ! R5    R(3,6)                  0.9611         -DE/DX =    0.0                 !
 ! R6    R(4,7)                  0.9595         -DE/DX =    0.0                 !
 ! A1    A(2,1,3)              116.6414         -DE/DX =    0.0                 !
 ! A2    A(2,1,4)              125.191          -DE/DX =    0.0                 !
 ! A3    A(3,1,4)              118.1677         -DE/DX =    0.0                 !
 ! A4    A(1,2,5)              115.8306         -DE/DX =    0.0                 !
 ! A5    A(1,3,6)              112.1471         -DE/DX =    0.0                 !
 ! A6    A(1,4,7)              116.4861         -DE/DX =    0.0                 !
 ! D1    D(3,1,2,5)           -179.9896         -DE/DX =    0.0                 !
 ! D2    D(4,1,2,5)              0.0137         -DE/DX =    0.0                 !
 ! D3    D(2,1,3,6)            180.0125         -DE/DX =    0.0                 !
 ! D4    D(4,1,3,6)              0.0095         -DE/DX =    0.0                 !
 ! D5    D(2,1,4,7)              0.0122         -DE/DX =    0.0                 !
 ! D6    D(3,1,4,7)           -179.9845         -DE/DX =    0.0                 !
 --------------------------------------------------------------------------------
 GradGradGradGradGradGradGradGradGradGradGradGradGradGradGradGradGradGrad

 Leave Link  103 at Tue Mar 12 17:05:17 2019, MaxMem=   104857600 cpu:               0.1 elap:               0.0
 (Enter /sw/chem/g16/l9999.exe)

 ----------------------------------------------------------------------

 Electric dipole moment (input orientation):
 (Debye = 10**-18 statcoulomb cm , SI units = C m)
                  (au)            (Debye)         (10**-30 SI)
   Tot        0.124431D+01      0.316271D+01      0.105497D+02
   x          0.111410D+01      0.283175D+01      0.944571D+01
   y         -0.545611D+00     -0.138680D+01     -0.462588D+01
   z         -0.969056D-01     -0.246310D+00     -0.821600D+00

 Dipole polarizability, Alpha (input orientation).
 (esu units = cm**3 , SI units = C**2 m**2 J**-1)
 Alpha(0;0):
               (au)            (10**-24 esu)      (10**-40 SI)
   iso        0.258243D+02      0.382676D+01      0.425785D+01
   aniso      0.972901D+01      0.144169D+01      0.160410D+01
   xx         0.301584D+02      0.446902D+01      0.497245D+01
   yx         0.836845D+00      0.124008D+00      0.137977D+00
   yy         0.276740D+02      0.410087D+01      0.456283D+01
   zx        -0.379565D+00     -0.562457D-01     -0.625818D-01
   zy         0.695245D+00      0.103025D+00      0.114630D+00
   zz         0.196404D+02      0.291041D+01      0.323826D+01

 ----------------------------------------------------------------------

 Dipole orientation:
     5          0.50484086          0.70996472         -2.26526570
     8          1.49774313          3.10126104         -2.32992597
     8          0.03974626         -0.40942183         -4.53812726
     8         -0.05132682         -0.62987193         -0.09501762
     1          1.81644673          3.86752680         -0.71934601
     1         -0.65334164         -2.07773569         -4.35064863
     1          0.29352102          0.20128200          1.47917834

 Electric dipole moment (dipole orientation):
 (Debye = 10**-18 statcoulomb cm , SI units = C m)
                  (au)            (Debye)         (10**-30 SI)
   Tot        0.124431D+01      0.316271D+01      0.105497D+02
   x          0.000000D+00      0.000000D+00      0.000000D+00
   y          0.000000D+00      0.000000D+00      0.000000D+00
   z          0.124431D+01      0.316271D+01      0.105497D+02

 Dipole polarizability, Alpha (dipole orientation).
 (esu units = cm**3 , SI units = C**2 m**2 J**-1)
 Alpha(0;0):
               (au)            (10**-24 esu)      (10**-40 SI)
   iso        0.258243D+02      0.382676D+01      0.425785D+01
   aniso      0.972901D+01      0.144169D+01      0.160410D+01
   xx         0.209279D+02      0.310120D+01      0.345055D+01
   yx         0.329046D+01      0.487596D+00      0.542524D+00
   yy         0.274846D+02      0.407280D+01      0.453160D+01
   zx         0.559519D+00      0.829121D-01      0.922522D-01
   zy         0.134527D+01      0.199348D+00      0.221805D+00
   zz         0.290603D+02      0.430629D+01      0.479139D+01

 ----------------------------------------------------------------------

 Test job not archived.
 1\1\GINC-NODE27\Freq\RB3LYP\6-311++G(d,p)\B1H3O3\SJIAO\12-Mar-2019\0\\
 #P Geom=AllCheck Guess=TCheck SCRF=Check Test GenChk RB3LYP/6-311++G(d
 ,p) Freq\\boricacid\\0,1\B,-0.8784343039,0.9367283471,0.0188992105\O,-
 0.3016701232,2.1770035058,0.1059935955\O,-2.2396727557,0.8904866402,0.
 0731921771\O,-0.190479288,-0.2533314166,-0.1179189693\H,0.6560991576,2
 .1960360408,0.0664178853\H,-2.5746305584,-0.007924729,0.0067420769\H,0
 .7664778716,-0.1927883883,-0.153325976\\Version=ES64L-G16RevB.01\State
 =1-A\HF=-252.577627\RMSD=2.894e-09\RMSF=1.679e-05\ZeroPoint=0.048388\T
 hermal=0.0529553\Dipole=1.1140977,-0.545611,-0.0969056\DipoleDeriv=1.9
 846557,0.0938875,-0.049172,0.0439333,1.9135634,0.1126958,-0.0536614,0.
 1105795,0.6546873,-0.6560058,-0.3450224,-0.0270738,-0.3736851,-1.17291
 12,-0.0390745,-0.0296818,-0.0403486,-0.5635501,-1.3355948,-0.1120964,0
 .0228692,-0.0763924,-0.4930994,0.0100024,0.0260775,0.0115264,-0.568001
 4,-0.7548603,0.3316887,0.0381605,0.3938485,-1.103446,-0.0655506,0.0437
 877,-0.0629153,-0.5710112,0.1974792,0.0687996,0.012709,0.0891684,0.329
 8689,-0.0055274,0.0145625,-0.0046366,0.3474249,0.3762574,0.0241109,0.0
 00934,0.0160851,0.2100495,-0.0130697,0.0002212,-0.0133976,0.3463444,0.
 1880685,-0.0613679,0.0015731,-0.0929577,0.3159749,0.0005241,-0.0013057
 ,-0.0008079,0.3541061\Polar=30.1584369,0.8368446,27.6740198,-0.3795651
 ,0.6952453,19.6403905\Quadrupole=4.2748853,-2.9954468,-1.2794385,2.830
 1357,0.017528,-0.2795493\PG=C01 [X(B1H3O3)]\NImag=0\\0.63301429,0.0301
 8935,0.59035789,-0.01800780,0.03838142,0.15447044,-0.11677655,-0.11150
 925,-0.00707186,0.67589284,-0.06808436,-0.27509775,-0.01762099,0.13399
 931,0.36148342,-0.00315280,-0.01574914,-0.04861291,-0.01598154,0.02463
 073,0.02745602,-0.32978850,0.01123737,0.01300838,-0.03600869,-0.027907
 61,-0.00059848,0.50076939,-0.02934378,-0.07364673,-0.00083126,-0.04112
 407,-0.00776859,0.00028642,0.17343149,0.55103773,0.00935701,-0.0025742
 5,-0.05104804,-0.00178954,-0.00028143,0.00869740,-0.00453017,0.0392684
 7,0.03564026,-0.13439387,0.10891814,0.01355466,0.01453649,-0.00394459,
 -0.00009308,-0.04623381,0.03554999,0.00574014,0.68967171,0.06955558,-0
 .23970114,-0.02033677,0.00981389,-0.05325155,-0.00708424,0.02337479,0.
 00103553,-0.00206319,-0.09382429,0.32430612,0.01000296,-0.02201601,-0.
 04972148,0.00114610,-0.00649422,0.02000566,0.00464058,-0.00258621,0.01
 238247,-0.03688856,0.03106546,0.02888177,-0.01600250,0.00662696,0.0011
 8327,-0.53518451,-0.03080773,0.02005447,0.00181037,-0.00253703,-0.0002
 2348,0.00130315,0.00478686,0.00023903,0.54707046,-0.03465483,-0.001976
 04,0.00153341,0.01060209,-0.02919862,-0.00259368,-0.00089274,-0.003632
 06,-0.00046145,0.00252500,0.00285814,0.00043356,0.02243947,0.03491310,
 -0.00254361,-0.00024727,-0.00233296,0.02379387,-0.00080744,-0.00662213
 ,-0.00007598,-0.00039161,0.00187978,0.00003539,0.00033709,-0.00313708,
 -0.02132201,0.00168512,0.00659337,-0.01670723,-0.03828500,-0.00272147,
 -0.00434252,0.00138808,0.00039565,-0.09163886,-0.13912315,-0.00902742,
 0.00403205,0.00041807,-0.00021040,-0.00044926,-0.00105863,0.00000763,0
 .10835422,0.00021239,-0.00312074,-0.00030425,0.00079800,0.00197849,-0.
 00003054,-0.18171982,-0.46421221,-0.03302998,0.00389923,-0.00208102,-0
 .00019720,0.00008931,0.00014716,-0.00016743,0.17633775,0.46769680,0.00
 074218,0.00134940,0.00024819,0.00034130,-0.00005656,0.00192680,-0.0128
 5912,-0.03485871,-0.01297103,0.00010267,-0.00004807,-0.00176022,0.0001
 1106,-0.00011825,0.00194394,0.01160305,0.03369219,0.01161214,-0.019345
 63,-0.00717756,0.00005483,0.00188295,-0.00464310,-0.00062422,0.0010901
 0,0.00314656,0.00047346,-0.52891571,-0.01412490,0.02107029,0.00145230,
 0.00103964,0.00010471,0.00075159,0.00038314,-0.00004113,0.54308440,0.0
 3212565,0.00318450,-0.00082156,-0.00257995,0.00185459,0.00054046,0.002
 47652,-0.00281367,-0.00085817,-0.05312349,-0.03316608,-0.00020537,-0.0
 0059783,-0.00311168,-0.00040845,0.00032288,-0.00040848,0.00004001,0.02
 137622,0.03446082,0.00360207,0.00085586,-0.00300324,-0.00043833,0.0006
 2991,-0.00285084,0.00041479,-0.00088709,0.00541916,0.01754879,-0.00187
 028,-0.00665111,-0.00004234,-0.00047870,0.00167509,-0.00004704,0.00003
 722,-0.00099983,-0.02103793,0.00171309,0.00641078\\0.00000043,0.000062
 48,-0.00000110,-0.00000033,-0.00002055,0.00000142,-0.00001912,-0.00002
 645,-0.00000128,-0.00000031,-0.00001095,-0.00000088,0.00000153,-0.0000
 0596,-0.00000095,0.00001626,0.00000737,0.00000196,0.00000154,-0.000005
 93,0.00000083\\\@


 I DO NOT DEFINE TIME, SPACE, PLACE, AND MOTION, AS BEING WELL KNOWN TO ALL.
                                            -- NEWTON (1642-1726), PRINCIPIA
 Job cpu time:       0 days  0 hours  3 minutes 30.4 seconds.
 Elapsed time:       0 days  0 hours  0 minutes 53.1 seconds.
 File lengths (MBytes):  RWF=     13 Int=      0 D2E=      0 Chk=      2 Scr=      1
 Normal termination of Gaussian 16 at Tue Mar 12 17:05:17 2019.
948.294u 19.116s 4:27.20 362.0%	0+0k 590005+538136io 10pf+0w
